LAMMPS data file via write_data, version 12 Dec 2018, timestep = 500000

1728 atoms
4 atom types

5.2249330521434025e+00 2.8775066947856978e+01 xlo xhi
7.9687336279528607e+00 3.8031266372047412e+01 ylo yhi
3.1869968193262230e+00 4.2813003180672737e+01 zlo zhi

Masses

1 40.08
2 28.09
3 16
4 1

Atoms # full

17 0 3 -2.0000000000000000e+00 7.4485643716188914e+00 1.0126118872999649e+01 4.5002541517360903e+00 0 0 0
7 0 2 4.0000000000000000e+00 8.1273265374113386e+00 8.6382742485367512e+00 4.3144406214879840e+00 0 0 0
13 0 3 -2.0000000000000000e+00 8.8581330878818925e+00 8.2835520378797334e+00 5.6964188767522179e+00 0 0 0
36 0 4 1.0000000000000000e+00 1.0367834498456411e+01 9.5498082906093913e+00 3.3548345554067365e+00 0 0 0
15 0 3 -2.0000000000000000e+00 9.2666011396078467e+00 8.7574771135528415e+00 3.3039939476420401e+00 0 0 0
32 0 3 -2.0000000000000000e+00 1.1269550726173687e+01 1.0301224376012240e+01 3.9215670543698318e+00 0 0 0
35 0 4 1.0000000000000000e+00 1.1446615848657052e+01 9.9608470716930047e+00 5.1031141405465119e+00 0 0 0
633 0 3 -2.0000000000000000e+00 1.1119439146029800e+01 9.3250599008600474e+00 6.3194823542177447e+00 0 1 0
68 0 3 -2.0000000000000000e+00 1.5168768354014727e+01 1.0336267993687784e+01 3.9996197660381791e+00 0 0 0
71 0 4 1.0000000000000000e+00 1.6053182633402450e+01 9.8540447367568209e+00 3.3822175966923704e+00 0 0 0
72 0 4 1.0000000000000000e+00 1.5269761359025646e+01 1.0850060857424721e+01 5.1145615473752546e+00 0 0 0
8 0 2 4.0000000000000000e+00 6.6984265017696174e+00 1.1312722314903871e+01 3.7245886590120318e+00 0 0 0
16 0 3 -2.0000000000000000e+00 5.8166050844623038e+00 1.2147875243815271e+01 4.7228272731878436e+00 0 0 0
2 0 1 2.0000000000000000e+00 1.0940826307522125e+01 1.2662259294830548e+01 4.3031312267785546e+00 0 0 0
50 0 3 -2.0000000000000000e+00 1.2632228047505608e+01 1.2476761908441430e+01 5.9137522517629160e+00 0 0 0
38 0 1 2.0000000000000000e+00 1.5772926160651664e+01 1.2656716648765116e+01 3.3612989977003753e+00 0 0 0
51 0 3 -2.0000000000000000e+00 1.5139309146289788e+01 1.2010043075192364e+01 5.7187950889982773e+00 0 0 0
43 0 2 4.0000000000000000e+00 1.4082110549848410e+01 1.3144343335519897e+01 5.9169072769220907e+00 0 0 0
44 0 2 4.0000000000000000e+00 1.3231354336981473e+01 1.5342790865009588e+01 3.9490987404281772e+00 0 0 0
52 0 3 -2.0000000000000000e+00 1.2754494440328507e+01 1.6544395729053445e+01 4.9718818831198961e+00 0 0 0
53 0 3 -2.0000000000000000e+00 1.4048759606243021e+01 1.4183222793297332e+01 4.6819712125183237e+00 0 0 0
54 0 3 -2.0000000000000000e+00 1.1920736495983906e+01 1.4753903965694567e+01 3.3929891154604990e+00 0 0 0
45 0 2 4.0000000000000000e+00 1.1958203402394521e+01 1.6977548502013061e+01 6.2832125227054441e+00 0 0 0
301 0 3 -2.0000000000000000e+00 6.5946535692528849e+00 1.7445627665587423e+01 4.1659107964712492e+00 0 0 0
295 0 2 4.0000000000000000e+00 7.0619846741353856e+00 1.8654276728261028e+01 3.3050203156578357e+00 0 0 0
305 0 3 -2.0000000000000000e+00 6.1454188238177210e+00 1.9945167573131442e+01 3.5844540640158109e+00 0 0 0
293 0 1 2.0000000000000000e+00 8.0250278803820905e+00 1.7845494443528189e+01 6.1157927369971468e+00 0 0 0
303 0 3 -2.0000000000000000e+00 8.5832995652163504e+00 1.8855755179907781e+01 3.6659227521042883e+00 0 0 0
323 0 4 1.0000000000000000e+00 1.0874803769966045e+01 1.9105260114919147e+01 5.3788439541144273e+00 0 0 0
57 0 3 -2.0000000000000000e+00 1.0730864173478594e+01 1.7890700079746967e+01 5.8813229079407101e+00 0 0 0
1228 0 1 2.0000000000000000e+00 1.2776714440821637e+01 1.8665535338335712e+01 3.4484830928676597e+00 0 0 1
296 0 2 4.0000000000000000e+00 5.3520510882446191e+00 2.1301606723986307e+01 3.2110697903595757e+00 0 0 0
308 0 3 -2.0000000000000000e+00 6.6495008077123074e+00 2.2281233053358832e+01 6.0631972569914510e+00 0 0 0
321 0 4 1.0000000000000000e+00 7.1875113875159711e+00 2.1066773911648916e+01 6.1615025281045686e+00 0 0 0
319 0 3 -2.0000000000000000e+00 8.1110436418028158e+00 2.0299845577337656e+01 6.4671471598635435e+00 0 0 0
290 0 1 2.0000000000000000e+00 9.4630740024158513e+00 2.1232465977734940e+01 4.8814259761913164e+00 0 0 0
320 0 3 -2.0000000000000000e+00 1.1613919762567408e+01 2.0079325001959685e+01 5.0250529045425667e+00 0 0 0
360 0 4 1.0000000000000000e+00 1.2780640815855371e+01 2.0661195872475052e+01 4.7027620978827391e+00 0 0 0
356 0 3 -2.0000000000000000e+00 1.3914089020760604e+01 2.0604116590289223e+01 4.0700197141812593e+00 0 0 0
337 0 3 -2.0000000000000000e+00 1.2811632312250739e+01 2.2573935932192818e+01 6.4763315980539007e+00 0 0 0
359 0 4 1.0000000000000000e+00 1.5081796415593050e+01 2.0304397723857544e+01 3.7321766571774209e+00 0 0 0
450 0 3 -2.0000000000000000e+00 1.6358218962527324e+01 2.0260006238928082e+01 3.2575160129152851e+00 0 0 0
326 0 1 2.0000000000000000e+00 1.4578960746768276e+01 2.2869943785269623e+01 4.2197856171196877e+00 0 0 0
5 0 1 2.0000000000000000e+00 7.1728443194746729e+00 1.0173957624785551e+01 7.3530693231805762e+00 0 0 0
26 0 3 -2.0000000000000000e+00 5.3190230178730040e+00 1.0710307237858283e+01 8.7830946134755337e+00 0 0 0
22 0 3 -2.0000000000000000e+00 7.9476964690582115e+00 8.6003763852032247e+00 9.2164665493566957e+00 0 0 0
31 0 3 -2.0000000000000000e+00 8.8745157919915894e+00 1.1578134838164400e+01 7.8633591072146016e+00 0 0 0
34 0 4 1.0000000000000000e+00 9.1155806631579583e+00 1.2475892001982654e+01 7.0949429218614535e+00 0 0 0
66 0 3 -2.0000000000000000e+00 9.9307086548311077e+00 1.3446313778979455e+01 6.7423405638622125e+00 0 0 0
33 0 4 1.0000000000000000e+00 8.8237047642036330e+00 1.1412243951340448e+01 8.9970237779651470e+00 0 0 0
41 0 1 2.0000000000000000e+00 1.1678972435587724e+01 1.1148219466438524e+01 7.5250147881404930e+00 0 0 0
61 0 3 -2.0000000000000000e+00 1.1670273514828445e+01 1.3678347556841011e+01 8.6668740362233159e+00 0 0 0
46 0 2 4.0000000000000000e+00 1.2748441560777142e+01 1.3146428224062268e+01 9.7380552466464430e+00 0 0 0
58 0 3 -2.0000000000000000e+00 1.3376895626330425e+01 1.1851661059890274e+01 9.0931366773126481e+00 0 0 0
49 0 3 -2.0000000000000000e+00 1.4528480299645150e+01 1.3963255076043945e+01 7.1335131136344705e+00 0 0 0
40 0 1 2.0000000000000000e+00 1.5673207392691006e+01 1.2320507172326419e+01 8.4738998316597307e+00 0 0 0
47 0 2 4.0000000000000000e+00 1.0647702126726866e+01 1.4451042379197318e+01 7.6925093411407817e+00 0 0 0
63 0 3 -2.0000000000000000e+00 9.6835690790786089e+00 1.5184003175369538e+01 8.7035687014437784e+00 0 0 0
62 0 3 -2.0000000000000000e+00 1.1438835043250036e+01 1.5605490818850086e+01 6.9115975808113888e+00 0 0 0
42 0 1 2.0000000000000000e+00 1.4693987894641198e+01 1.5786273924234568e+01 8.4530693040122724e+00 0 0 0
454 0 3 -2.0000000000000000e+00 1.6760443721250283e+01 1.6786720273712625e+01 8.9323662237964481e+00 0 0 0
310 0 3 -2.0000000000000000e+00 6.1331099502369684e+00 1.7390854979706710e+01 7.5001542540030099e+00 0 0 0
322 0 4 1.0000000000000000e+00 8.0582949942011552e+00 1.9967368252531067e+01 7.6084139759663154e+00 0 0 0
311 0 3 -2.0000000000000000e+00 7.3976307198766040e+00 1.9309656293835989e+01 8.5079497411667120e+00 0 0 0
298 0 2 4.0000000000000000e+00 5.9605704336137597e+00 1.8555776827593682e+01 8.5205189507842025e+00 0 0 0
65 0 3 -2.0000000000000000e+00 1.0758648210406538e+01 1.7283036541551624e+01 9.7242772238991559e+00 0 0 0
56 0 3 -2.0000000000000000e+00 1.2907305819214834e+01 1.7819254694752164e+01 7.2240080592875087e+00 0 0 0
69 0 4 1.0000000000000000e+00 1.3311172076528893e+01 1.7884017090721354e+01 8.5041787866162419e+00 0 0 0
67 0 3 -2.0000000000000000e+00 1.3362460552617888e+01 1.7287562749138576e+01 9.5731141474862671e+00 0 0 0
457 0 3 -2.0000000000000000e+00 1.6000457126229534e+01 1.9213432519097434e+01 9.6956386958055898e+00 0 0 0
294 0 1 2.0000000000000000e+00 8.4798212264124437e+00 2.2935211757835329e+01 7.4694964383314444e+00 0 0 0
346 0 3 -2.0000000000000000e+00 1.0520007165571647e+01 2.0998910774415595e+01 8.6596912470925655e+00 0 0 0
329 0 1 2.0000000000000000e+00 1.2341575856619576e+01 2.0377538346824000e+01 7.4021261208049962e+00 0 0 0
458 0 3 -2.0000000000000000e+00 1.6787897634892843e+01 2.1453296237401190e+01 8.8032805912556835e+00 0 0 0
443 0 2 4.0000000000000000e+00 1.5700883116233165e+01 2.0795088044390624e+01 9.7339272968015500e+00 0 0 0
462 0 3 -2.0000000000000000e+00 1.4214246074017215e+01 2.1264092169162836e+01 9.3959381380071640e+00 0 0 0
10 0 2 4.0000000000000000e+00 7.9681439107842902e+00 9.4420003257387322e+00 1.0496972637725410e+01 0 0 0
25 0 3 -2.0000000000000000e+00 6.3714961763888924e+00 9.5634995091005415e+00 1.0811149191505310e+01 0 0 0
23 0 3 -2.0000000000000000e+00 8.5674234247506007e+00 1.0901785933659699e+01 1.0184713238532517e+01 0 0 0
24 0 3 -2.0000000000000000e+00 8.5500693552360190e+00 8.9048317070722440e+00 1.1783748932748647e+01 0 0 0
12 0 2 4.0000000000000000e+00 5.4442620466298184e+00 1.3166809990392535e+01 1.1825275418285530e+01 0 0 0
29 0 3 -2.0000000000000000e+00 6.9268264564453572e+00 1.3360804822827451e+01 1.2307630532281051e+01 0 0 0
3 0 1 2.0000000000000000e+00 9.4539483447265873e+00 1.2706029161264507e+01 1.1402124862381664e+01 0 0 0
60 0 3 -2.0000000000000000e+00 1.1947947074404800e+01 1.2801796184401546e+01 1.1003046987747917e+01 0 0 0
74 0 1 2.0000000000000000e+00 1.2746431249021500e+01 1.1875695273853294e+01 1.2844630093162683e+01 0 0 0
254 0 1 2.0000000000000000e+00 6.4528395874145010e+00 1.6357983231663034e+01 1.1326816178424615e+01 1 0 0
64 0 3 -2.0000000000000000e+00 8.3535504365563504e+00 1.6880286317638951e+01 1.0225959928745100e+01 0 0 0
48 0 2 4.0000000000000000e+00 9.6780743663076034e+00 1.6142439954626283e+01 9.9463520663641418e+00 0 0 0
90 0 3 -2.0000000000000000e+00 1.0083783082337428e+01 1.5316255514990333e+01 1.1259436721498687e+01 0 0 0
80 0 2 4.0000000000000000e+00 1.0789852877855228e+01 1.5779711884356445e+01 1.2607488763684836e+01 0 0 0
59 0 3 -2.0000000000000000e+00 1.3926155295371723e+01 1.4183326424087451e+01 9.9979918054702424e+00 0 0 0
91 0 3 -2.0000000000000000e+00 1.2235703435401943e+01 1.6368980563665669e+01 1.2386589696031013e+01 0 0 0
39 0 1 2.0000000000000000e+00 1.4510702482226739e+01 1.6234325156643536e+01 1.1538123022648623e+01 0 0 0
312 0 3 -2.0000000000000000e+00 5.5716458717583288e+00 1.8016457628631947e+01 9.8960756661203941e+00 0 0 0
292 0 1 2.0000000000000000e+00 9.1080161862201621e+00 1.9109331499078362e+01 9.9829261113903627e+00 0 0 0
88 0 3 -2.0000000000000000e+00 9.9026115479717465e+00 1.7101840248635266e+01 1.3058890035964122e+01 0 0 0
70 0 4 1.0000000000000000e+00 1.2157563020112248e+01 1.7262688164424855e+01 9.8393556160612903e+00 0 0 0
362 0 1 2.0000000000000000e+00 1.2011473596505450e+01 1.8868842775070302e+01 1.2742946634136263e+01 0 0 0
456 0 3 -2.0000000000000000e+00 1.6710256555365056e+01 1.7375108458002305e+01 1.1317357959380738e+01 0 0 0
335 0 2 4.0000000000000000e+00 7.3960351829611168e+00 2.2831702103952278e+01 1.0371258240022813e+01 0 0 0
354 0 3 -2.0000000000000000e+00 6.0528285900989065e+00 2.1998785908443047e+01 1.0641096565984034e+01 0 0 0
349 0 3 -2.0000000000000000e+00 8.7759474650498923e+00 2.1995587984616066e+01 1.0063711388514747e+01 0 0 0
334 0 2 4.0000000000000000e+00 1.0395955687691758e+01 2.1682555485735410e+01 1.0014269104397140e+01 0 0 0
348 0 3 -2.0000000000000000e+00 1.0792861087196336e+01 2.0593079186726118e+01 1.1041043562549408e+01 0 0 0
347 0 3 -2.0000000000000000e+00 1.1343095546810698e+01 2.2967315841665283e+01 1.0073966559791998e+01 0 0 0
327 0 1 2.0000000000000000e+00 1.3213377672675451e+01 2.2192387171503860e+01 1.1743780951041744e+01 0 0 0
459 0 3 -2.0000000000000000e+00 1.6090618554963577e+01 2.1410770553444713e+01 1.1161623293968605e+01 0 0 0
444 0 2 4.0000000000000000e+00 1.6760240227361617e+01 2.2595796088128285e+01 1.2011618499672181e+01 0 0 0
73 0 1 2.0000000000000000e+00 9.9583824984231004e+00 9.4593336211832231e+00 1.3516224496793800e+01 0 0 0
705 0 3 -2.0000000000000000e+00 1.2488329501711302e+01 9.6630154159811283e+00 1.3663517661624670e+01 0 1 0
693 0 2 4.0000000000000000e+00 1.3915391476866795e+01 9.2151403748642107e+00 1.4130305247644706e+01 0 1 0
704 0 3 -2.0000000000000000e+00 1.3936565907393124e+01 8.9792566182944835e+00 1.5664558579133706e+01 0 1 0
122 0 3 -2.0000000000000000e+00 1.4839348857384257e+01 1.0579578210662097e+01 1.3925720415860814e+01 0 0 0
265 0 3 -2.0000000000000000e+00 5.2831930307820727e+00 1.3416461405032107e+01 1.5327890149526697e+01 1 0 0
288 0 4 1.0000000000000000e+00 5.6443796572081775e+00 1.2607372946266141e+01 1.6343139226596364e+01 1 0 0
86 0 3 -2.0000000000000000e+00 1.0302754750551831e+01 1.1994751256461038e+01 1.3396996174609068e+01 0 0 0
79 0 2 4.0000000000000000e+00 1.0494065079705104e+01 1.3114018357939312e+01 1.4486107816760112e+01 0 0 0
85 0 3 -2.0000000000000000e+00 9.2239638595022750e+00 1.3209717398184416e+01 1.5342108462449163e+01 0 0 0
87 0 3 -2.0000000000000000e+00 1.1825932174490314e+01 1.2789898062134920e+01 1.5199835727973026e+01 0 0 0
121 0 3 -2.0000000000000000e+00 1.5756998699255927e+01 1.1493731587016612e+01 1.6009442609825584e+01 0 0 0
125 0 3 -2.0000000000000000e+00 1.5035196940950140e+01 1.3138664115364978e+01 1.4314387506079123e+01 0 0 0
115 0 2 4.0000000000000000e+00 1.5860860941350824e+01 1.1706552956517788e+01 1.4518527514381393e+01 0 0 0
93 0 3 -2.0000000000000000e+00 7.5432511137192346e+00 1.6442313079918680e+01 1.3277305490521629e+01 0 0 0
271 0 3 -2.0000000000000000e+00 5.5972348422027709e+00 1.6445877834367035e+01 1.5201006891511208e+01 1 0 0
253 0 1 2.0000000000000000e+00 7.3498245100063269e+00 1.4517051079258513e+01 1.4602780283823504e+01 1 0 0
89 0 3 -2.0000000000000000e+00 1.0664695820707054e+01 1.4571863372511475e+01 1.3654229807772481e+01 0 0 0
285 0 4 1.0000000000000000e+00 8.5490164632408820e+00 1.6216114870295520e+01 1.6199269823206823e+01 1 0 0
117 0 2 4.0000000000000000e+00 1.2603098118378112e+01 1.6355053883467210e+01 1.5583311383650463e+01 0 0 0
124 0 3 -2.0000000000000000e+00 1.3651409465118652e+01 1.5430813788660092e+01 1.4917739622306129e+01 0 0 0
126 0 3 -2.0000000000000000e+00 1.5709650886598977e+01 1.5541625517232450e+01 1.3487523644301898e+01 0 0 0
127 0 3 -2.0000000000000000e+00 1.5901279704467996e+01 1.4896378919458687e+01 1.5946077625025227e+01 0 0 0
116 0 2 4.0000000000000000e+00 1.5122478817189510e+01 1.4738986984983192e+01 1.4633824840385623e+01 0 0 0
286 0 4 1.0000000000000000e+00 6.2165990695532063e+00 1.6990883831316175e+01 1.6218832215783877e+01 1 0 0
374 0 3 -2.0000000000000000e+00 5.5390743369199313e+00 1.9756031088953598e+01 1.4779617319458284e+01 0 0 0
375 0 3 -2.0000000000000000e+00 7.9917571856399015e+00 1.9018488974279872e+01 1.3879844833060993e+01 0 0 0
373 0 3 -2.0000000000000000e+00 7.7164855208426095e+00 1.9831403468610745e+01 1.6150572057870104e+01 0 0 0
81 0 2 4.0000000000000000e+00 8.5488478541250945e+00 1.7464033793294487e+01 1.3861140752848256e+01 0 0 0
92 0 3 -2.0000000000000000e+00 8.9165885131511757e+00 1.7098313659419791e+01 1.5318555710692648e+01 0 0 0
361 0 1 2.0000000000000000e+00 1.0352993537514656e+01 1.8831348339934095e+01 1.6275556860687090e+01 0 0 0
129 0 3 -2.0000000000000000e+00 1.2028423940060225e+01 1.7604552687895353e+01 1.5022279849525853e+01 0 0 0
377 0 3 -2.0000000000000000e+00 7.3044848447438699e+00 2.1707849546547600e+01 1.4616793003512010e+01 0 0 0
367 0 2 4.0000000000000000e+00 7.1263287414100054e+00 2.0087516382831190e+01 1.4784805379340018e+01 0 0 0
410 0 3 -2.0000000000000000e+00 1.2880686168224956e+01 2.0785608016155901e+01 1.3667609043995830e+01 0 0 0
413 0 3 -2.0000000000000000e+00 1.2618227154408411e+01 2.2692092248684471e+01 1.5323356381473566e+01 0 0 0
403 0 2 4.0000000000000000e+00 1.3101547671569039e+01 2.1167759897194877e+01 1.5138117456078772e+01 0 0 0
409 0 3 -2.0000000000000000e+00 1.2370983466511436e+01 2.0223451443418046e+01 1.6171453074916627e+01 0 0 0
411 0 3 -2.0000000000000000e+00 1.4654934331034660e+01 2.1165743191824280e+01 1.5481798266629722e+01 0 0 0
108 0 4 1.0000000000000000e+00 9.2040170199571758e+00 8.4266636000107606e+00 1.8033038129700358e+01 0 0 0
94 0 3 -2.0000000000000000e+00 9.5831744403819652e+00 8.1108045344139885e+00 1.9218612578989980e+01 0 0 0
712 0 3 -2.0000000000000000e+00 1.3765028699379627e+01 9.8776126557134045e+00 1.7988504123652465e+01 0 1 0
696 0 2 4.0000000000000000e+00 1.4104667121418105e+01 8.6004770551028908e+00 1.7185640493984511e+01 0 1 0
287 0 4 1.0000000000000000e+00 5.8013931812368762e+00 1.1617248451906148e+01 1.8305291922354861e+01 1 0 0
284 0 3 -2.0000000000000000e+00 5.9486855918566439e+00 1.2485088244152742e+01 1.7443606089369528e+01 1 0 0
102 0 3 -2.0000000000000000e+00 6.0826036812977513e+00 1.0979292166519503e+01 1.9489376762266843e+01 0 0 0
105 0 4 1.0000000000000000e+00 7.7585358836927680e+00 1.3551789889638465e+01 1.9575901776721803e+01 0 0 0
77 0 1 2.0000000000000000e+00 8.3061560722792187e+00 1.3111465941888113e+01 1.7344107858892883e+01 0 0 0
98 0 3 -2.0000000000000000e+00 8.3231891660513941e+00 1.2274274463145382e+01 1.9411094426661290e+01 0 0 0
134 0 3 -2.0000000000000000e+00 1.3788488064986806e+01 1.3317772686813376e+01 1.8218914391969815e+01 0 0 0
113 0 1 2.0000000000000000e+00 1.3392598167250904e+01 1.1791299379708825e+01 1.6628829048558718e+01 0 0 0
106 0 4 1.0000000000000000e+00 1.1291290325037711e+01 1.1227134532577915e+01 1.9639395816045596e+01 0 0 0
119 0 2 4.0000000000000000e+00 1.2813162090190476e+01 1.3645175510150350e+01 1.9376862305244114e+01 0 0 0
144 0 4 1.0000000000000000e+00 1.6578973079946433e+01 1.1291136415051303e+01 1.7060140025227316e+01 0 0 0
114 0 1 2.0000000000000000e+00 1.6152842204096750e+01 1.3730990388081951e+01 1.7774797019017232e+01 0 0 0
258 0 1 2.0000000000000000e+00 5.6899736546814408e+00 1.4924027605734393e+01 1.7676395203295865e+01 1 0 0
283 0 3 -2.0000000000000000e+00 7.9454986609620981e+00 1.5330331415458643e+01 1.6798988539530306e+01 1 0 0
103 0 3 -2.0000000000000000e+00 7.2620160665160283e+00 1.4590236392208114e+01 1.9489948763018862e+01 0 0 0
364 0 1 2.0000000000000000e+00 8.2678950797884880e+00 1.6565168246193057e+01 1.8698508258982425e+01 0 0 0
128 0 3 -2.0000000000000000e+00 1.2512616983711995e+01 1.6350738350480462e+01 1.7089906188487205e+01 0 0 0
120 0 2 4.0000000000000000e+00 1.2214993758401913e+01 1.6556777395989805e+01 1.8629772555211737e+01 0 0 0
135 0 3 -2.0000000000000000e+00 1.2048247473018140e+01 1.5041010669683850e+01 1.9141159337040296e+01 0 0 0
281 0 3 -2.0000000000000000e+00 6.1031514432803506e+00 1.7627234261171758e+01 1.7412260403547862e+01 1 0 0
396 0 4 1.0000000000000000e+00 7.9155862686341170e+00 1.8833697955750896e+01 1.7077491595957387e+01 0 0 0
392 0 3 -2.0000000000000000e+00 8.8503753456124095e+00 1.8702454216074301e+01 1.7920522494830266e+01 0 0 0
395 0 4 1.0000000000000000e+00 9.9072548819644233e+00 1.8448104979721837e+01 1.8728585559851748e+01 0 0 0
136 0 3 -2.0000000000000000e+00 1.0911349829728538e+01 1.7401324644136821e+01 1.8616095397878539e+01 0 0 0
432 0 4 1.0000000000000000e+00 1.3009987699324164e+01 1.9478443831155460e+01 1.6981353786675022e+01 0 0 0
431 0 4 1.0000000000000000e+00 1.3921286490843508e+01 1.8447071761823924e+01 1.8633133096353340e+01 0 0 0
428 0 3 -2.0000000000000000e+00 1.3880870819909848e+01 1.9377875180894673e+01 1.7832144268044434e+01 0 0 0
137 0 3 -2.0000000000000000e+00 1.3496499141258800e+01 1.7276722135678511e+01 1.9253303988381493e+01 0 0 0
397 0 1 2.0000000000000000e+00 1.5879217794939555e+01 1.9770610503640548e+01 1.6813545056043331e+01 0 0 0
534 0 3 -2.0000000000000000e+00 1.6882552869043245e+01 1.9433825464977307e+01 1.9495734333059374e+01 0 0 0
280 0 3 -2.0000000000000000e+00 5.7718459353960796e+00 2.0073443304897008e+01 1.8476893473442892e+01 1 0 0
365 0 1 2.0000000000000000e+00 7.9789378258760095e+00 2.0988139172860070e+01 1.8184932397489330e+01 0 0 0
391 0 3 -2.0000000000000000e+00 1.0418133676242812e+01 2.1413787717012323e+01 1.9014120639090663e+01 0 0 0
394 0 4 1.0000000000000000e+00 9.9113673834181508e+00 2.2496434052265322e+01 1.9419256823869130e+01 0 0 0
393 0 4 1.0000000000000000e+00 1.0220384449197468e+01 2.0373814016746259e+01 1.9621472508940450e+01 0 0 0
401 0 1 2.0000000000000000e+00 1.2643085416565826e+01 2.1447501282827830e+01 1.8528868600685648e+01 0 0 0
97 0 3 -2.0000000000000000e+00 8.4552521672420315e+00 9.8939352574541406e+00 2.0482171576336352e+01 0 0 0
82 0 2 4.0000000000000000e+00 9.8324053023127309e+00 9.0229823103898816e+00 2.0463502692982303e+01 0 0 0
95 0 3 -2.0000000000000000e+00 1.1024815689162063e+01 1.0097071958109231e+01 2.0236202624147818e+01 0 0 0
96 0 3 -2.0000000000000000e+00 1.0132782004145891e+01 8.2555047756841091e+00 2.1736111089772407e+01 0 0 0
76 0 1 2.0000000000000000e+00 1.3482624577106153e+01 1.0022030378866640e+01 2.0150798529736765e+01 0 0 0
936 0 4 1.0000000000000000e+00 1.3236649444719674e+01 8.8250998849678037e+00 2.2996872688008093e+01 0 0 0
932 0 3 -2.0000000000000000e+00 1.3970915233583806e+01 8.9402549906515034e+00 2.2043293367341686e+01 0 0 0
935 0 4 1.0000000000000000e+00 1.4652856072891014e+01 8.0850701047814333e+00 2.1545576113160227e+01 0 0 0
901 0 1 2.0000000000000000e+00 1.5422130049503059e+01 1.0412527210117998e+01 2.2937689482114251e+01 0 0 0
83 0 2 4.0000000000000000e+00 7.4979617511007008e+00 1.1161512484910908e+01 2.0175955476904278e+01 0 0 0
99 0 3 -2.0000000000000000e+00 7.1952729177475305e+00 1.1836625017614542e+01 2.1531669335627768e+01 0 0 0
84 0 2 4.0000000000000000e+00 7.7684937350132941e+00 1.1965181748280592e+01 2.2975678819036066e+01 0 0 0
101 0 3 -2.0000000000000000e+00 9.3069934730557051e+00 1.1495957879419244e+01 2.2945904377565611e+01 0 0 0
138 0 3 -2.0000000000000000e+00 1.1908084560900583e+01 1.2379779234776919e+01 1.9724453897906773e+01 0 0 0
133 0 3 -2.0000000000000000e+00 1.3693631109173579e+01 1.3854091479066229e+01 2.0635385301962849e+01 0 0 0
75 0 1 2.0000000000000000e+00 1.1209058643116567e+01 1.2413061754794152e+01 2.1967987586339774e+01 0 0 0
130 0 3 -2.0000000000000000e+00 1.4900026814072357e+01 1.1713344502035314e+01 2.1165656925093600e+01 0 0 0
118 0 2 4.0000000000000000e+00 1.5052716269148206e+01 1.3275209704915202e+01 2.1262021027524135e+01 0 0 0
131 0 3 -2.0000000000000000e+00 1.6297978350073432e+01 1.3718581034861991e+01 2.0394295916214318e+01 0 0 0
132 0 3 -2.0000000000000000e+00 1.5272740466070788e+01 1.3758291934788366e+01 2.2657637541789505e+01 0 0 0
78 0 1 2.0000000000000000e+00 7.0267631113108466e+00 1.5283206848327033e+01 2.1574621773519333e+01 0 0 0
382 0 3 -2.0000000000000000e+00 8.0066908381819974e+00 1.7380713622305631e+01 2.0791698647336130e+01 0 0 0
385 0 3 -2.0000000000000000e+00 7.7381425484121440e+00 1.9972031231880486e+01 2.1539025576538553e+01 0 0 0
383 0 3 -2.0000000000000000e+00 9.8209008043596970e+00 1.9337966326870756e+01 2.0291103004119037e+01 0 0 0
370 0 2 4.0000000000000000e+00 8.7331675325460711e+00 1.8707881790272452e+01 2.1233548971673745e+01 0 0 0
384 0 3 -2.0000000000000000e+00 9.4581242308919649e+00 1.8518604340113832e+01 2.2550373871314743e+01 0 0 0
1189 0 1 2.0000000000000000e+00 1.1475219231893943e+01 1.9760467159822976e+01 2.2536678184039360e+01 0 0 0
142 0 4 1.0000000000000000e+00 1.4657623791293826e+01 1.7132860382424138e+01 2.0172436215287036e+01 0 0 0
139 0 3 -2.0000000000000000e+00 1.5768540841192950e+01 1.7494741634568967e+01 2.0675999788470207e+01 0 0 0
141 0 4 1.0000000000000000e+00 1.6505688876247465e+01 1.8161236548185645e+01 1.9953834506304233e+01 0 0 0
400 0 1 2.0000000000000000e+00 1.5233937765469408e+01 1.9905171408716157e+01 2.1286285323491665e+01 0 0 0
390 0 3 -2.0000000000000000e+00 5.7429348048958815e+00 2.1749629279729849e+01 2.1086958256110172e+01 0 0 0
371 0 2 4.0000000000000000e+00 7.2850609362914591e+00 2.1530034192689435e+01 2.1305628486289365e+01 0 0 0
386 0 3 -2.0000000000000000e+00 8.0064844575433867e+00 2.2213540252053448e+01 2.0113872456138292e+01 0 0 0
387 0 3 -2.0000000000000000e+00 7.6509320842655519e+00 2.2455255827113820e+01 2.2585924406956963e+01 0 0 0
418 0 3 -2.0000000000000000e+00 1.3339094059093890e+01 2.1265864146413776e+01 2.0979713508506730e+01 0 0 0
406 0 2 4.0000000000000000e+00 1.3009065864430099e+01 2.2577184405698109e+01 2.1821299339955889e+01 0 0 0
420 0 3 -2.0000000000000000e+00 1.1915789600606603e+01 2.2133922292772972e+01 2.2813910684698918e+01 0 0 0
872 0 2 4.0000000000000000e+00 5.3521991048160009e+00 1.0229025567519317e+01 2.3986309770462253e+01 0 0 0
883 0 3 -2.0000000000000000e+00 6.8033239647733064e+00 1.0909314960555779e+01 2.3709339647943427e+01 0 0 0
881 0 3 -2.0000000000000000e+00 5.4593049863709542e+00 8.6750686948693385e+00 2.4437046203194374e+01 0 0 0
866 0 1 2.0000000000000000e+00 1.0468325394070890e+01 9.4153869414376690e+00 2.3619827373050644e+01 0 0 0
914 0 3 -2.0000000000000000e+00 1.2829061928251404e+01 9.2303653801507348e+00 2.4123539816512395e+01 0 0 0
907 0 2 4.0000000000000000e+00 1.3366122503589555e+01 1.0005569528201725e+01 2.5379219043588126e+01 0 0 0
915 0 3 -2.0000000000000000e+00 1.4583530033536288e+01 1.0944017900341423e+01 2.4915216416696609e+01 0 0 0
100 0 3 -2.0000000000000000e+00 7.5301873062094407e+00 1.3480635792609892e+01 2.3312899792531297e+01 0 0 0
916 0 3 -2.0000000000000000e+00 9.9620052618115533e+00 1.2684103338142824e+01 2.5759644740998212e+01 0 0 0
918 0 3 -2.0000000000000000e+00 1.1959975870687330e+01 1.2814077871125747e+01 2.3964544799311184e+01 0 0 0
917 0 3 -2.0000000000000000e+00 1.2091487606226927e+01 1.1014989314194340e+01 2.5639908383410866e+01 0 0 0
908 0 2 4.0000000000000000e+00 1.1570679751284068e+01 1.2511924598608928e+01 2.5392686590418794e+01 0 0 0
919 0 3 -2.0000000000000000e+00 1.2401108380653898e+01 1.3548691544053003e+01 2.6230894008607290e+01 0 0 0
902 0 1 2.0000000000000000e+00 1.4450910424794969e+01 1.3512699956200233e+01 2.4756704358524836e+01 0 0 0
1029 0 3 -2.0000000000000000e+00 1.6518720503028735e+01 1.3289664765753850e+01 2.5730071760748721e+01 0 0 0
255 0 1 2.0000000000000000e+00 6.0100552018063151e+00 1.4430474103435046e+01 2.4685487367157055e+01 1 0 0
1154 0 1 2.0000000000000000e+00 8.1520877985762450e+00 1.9408446384244538e+01 2.4174674807304058e+01 0 0 0
1167 0 3 -2.0000000000000000e+00 6.9096611668932981e+00 1.9649899123645902e+01 2.5905430240770890e+01 0 0 0
1201 0 3 -2.0000000000000000e+00 1.0197647017533665e+01 1.8602637915237803e+01 2.6034435442451240e+01 0 0 0
1195 0 2 4.0000000000000000e+00 1.0985410345977954e+01 1.9870092459739784e+01 2.5523326454103866e+01 0 0 0
1203 0 3 -2.0000000000000000e+00 1.2271982192672571e+01 1.9726127592525728e+01 2.4686867207331307e+01 0 0 0
1169 0 3 -2.0000000000000000e+00 5.3614485271473047e+00 2.1772318124467979e+01 2.5675340246225609e+01 0 0 0
363 0 1 2.0000000000000000e+00 1.0166103017651320e+01 2.2965135779489902e+01 2.4129910222300964e+01 0 0 0
1202 0 3 -2.0000000000000000e+00 9.9696149958761300e+00 2.0656975849924788e+01 2.4596863233723425e+01 0 0 0
1190 0 1 2.0000000000000000e+00 1.3716617637169202e+01 2.1762833809658094e+01 2.4738853185920657e+01 0 0 0
1314 0 3 -2.0000000000000000e+00 1.5754059053429692e+01 2.0794142320731773e+01 2.3243538376891134e+01 0 0 0
1304 0 2 4.0000000000000000e+00 1.6970799326818057e+01 2.1509214202784452e+01 2.3835109013088996e+01 0 0 0
1312 0 3 -2.0000000000000000e+00 1.6446888423835528e+01 2.2208779368079387e+01 2.5263342753162171e+01 0 0 0
926 0 3 -2.0000000000000000e+00 9.4979207348018733e+00 9.6317761142738263e+00 2.8168404228408562e+01 0 0 0
911 0 2 4.0000000000000000e+00 9.9301585116442812e+00 1.0464928778348279e+01 2.9394318171013566e+01 0 0 0
913 0 3 -2.0000000000000000e+00 1.3781093478972993e+01 9.0962038132065732e+00 2.6528430940560085e+01 0 0 0
922 0 3 -2.0000000000000000e+00 1.4011660058829341e+01 1.0898621278206654e+01 2.9477377100673603e+01 0 0 0
905 0 1 2.0000000000000000e+00 1.4599897119680946e+01 9.0113761312420060e+00 2.8482108728824425e+01 0 0 0
921 0 3 -2.0000000000000000e+00 7.5185433269261104e+00 1.3801701390717895e+01 2.6365033641794167e+01 0 0 0
909 0 2 4.0000000000000000e+00 8.9450116203720231e+00 1.3471536780629867e+01 2.6640957723413290e+01 0 0 0
927 0 3 -2.0000000000000000e+00 8.8637739864405649e+00 1.1696878694229325e+01 2.9602782610862281e+01 0 0 0
925 0 3 -2.0000000000000000e+00 1.1390294879201999e+01 1.1185149309376031e+01 2.9371532167660234e+01 0 0 0
1153 0 1 2.0000000000000000e+00 7.1622951954858243e+00 1.5768911705012234e+01 2.8484439025460315e+01 0 0 0
1223 0 4 1.0000000000000000e+00 9.5585587533666470e+00 1.5829827440911048e+01 2.7624238840601130e+01 0 0 0
920 0 3 -2.0000000000000000e+00 9.7492588067072035e+00 1.4523859416295545e+01 2.7448797530067239e+01 0 0 0
1220 0 3 -2.0000000000000000e+00 8.9630553690690196e+00 1.6820711852675490e+01 2.7361409699886423e+01 0 0 0
906 0 1 2.0000000000000000e+00 1.2045534487338966e+01 1.4616425345739113e+01 2.8143396906563318e+01 0 0 0
1183 0 3 -2.0000000000000000e+00 6.8604973526511399e+00 1.8682508389450199e+01 2.9251814707143172e+01 0 0 0
1186 0 4 1.0000000000000000e+00 6.2756806963571252e+00 1.9835371117317550e+01 2.8880499065671295e+01 0 0 0
1188 0 4 1.0000000000000000e+00 5.8614905645792419e+00 1.7946001368022664e+01 2.8797367045468491e+01 0 0 0
1224 0 4 1.0000000000000000e+00 9.7189757510225974e+00 1.7486417435970786e+01 2.6525797442826150e+01 0 0 0
1193 0 1 2.0000000000000000e+00 8.4778122019006350e+00 1.9056948512637124e+01 2.7726272224167506e+01 0 0 0
933 0 4 1.0000000000000000e+00 1.0712606956100622e+01 1.7046895024815306e+01 2.9513296793258146e+01 0 0 0
1301 0 1 2.0000000000000000e+00 1.6822514960667295e+01 1.9905481012840895e+01 2.9056432618149870e+01 0 0 0
1159 0 2 4.0000000000000000e+00 5.6011208021361005e+00 2.0324031728167700e+01 2.6416771552305296e+01 0 0 0
1214 0 3 -2.0000000000000000e+00 8.0548621764846615e+00 2.2840124371470292e+01 2.9000366867288243e+01 0 0 0
1165 0 3 -2.0000000000000000e+00 5.7378896379739670e+00 2.0413113255865564e+01 2.7925813882746876e+01 0 0 0
1205 0 3 -2.0000000000000000e+00 1.1231419069368716e+01 2.0965903104634361e+01 2.6675905390736546e+01 0 0 0
1196 0 2 4.0000000000000000e+00 1.1305302761251236e+01 2.2577336277296322e+01 2.6944434489268318e+01 0 0 0