LAMMPS data file via write_data, version 12 Dec 2018, timestep = 500000

2108 atoms
5 atom types

3.3044880844723910e+00 3.7695511915527177e+01 xlo xhi
7.8505010294105286e+00 3.8149498970587779e+01 ylo yhi
1.0211924652923066e-01 4.5897880753470361e+01 zlo zhi

Masses

1 40.08
2 28.09
3 16
4 1
5 12.0107

Atoms # full

7 0 2 4.0000000000000000e+00 7.1026435554941418e+00 9.4311129582316529e+00 3.0540798985824775e+00 0 0 0
8 0 2 4.0000000000000000e+00 6.7637140602438208e+00 1.2302362871231820e+01 1.6666412192170330e+00 0 0 0
13 0 3 -2.0000000000000000e+00 6.6887958484400052e+00 9.6661004499991279e+00 4.5565414885141680e+00 0 0 0
16 0 3 -2.0000000000000000e+00 7.5606846912789019e+00 1.3057706972895767e+01 2.9780884243644961e+00 0 0 0
17 0 3 -2.0000000000000000e+00 6.7120184677781944e+00 1.0767859554318349e+01 2.1615822745501658e+00 0 0 0
20 0 3 -2.0000000000000000e+00 5.7855015696740510e+00 1.3056303137727122e+01 5.0609253568447503e+00 0 0 0
5 0 1 2.0000000000000000e+00 8.8525441634851969e+00 9.5123347704301189e+00 5.8354910561329207e+00 0 0 0
6 0 1 2.0000000000000000e+00 5.6431160741657447e+00 1.1023184808196747e+01 6.1585328967346422e+00 0 0 0
9 0 2 4.0000000000000000e+00 7.0671408963691267e+00 1.3773266998857816e+01 4.3659944479748960e+00 0 0 0
18 0 3 -2.0000000000000000e+00 5.4214055562376364e+00 1.3093813037182137e+01 1.4172102572804208e+00 0 0 0
31 0 3 -2.0000000000000000e+00 1.1255718612802127e+01 9.1974410797529469e+00 6.1231199516531190e+00 0 0 0
2 0 1 2.0000000000000000e+00 1.0701111481987509e+01 9.5864829219306316e+00 1.6401039218706230e+00 0 0 0
15 0 3 -2.0000000000000000e+00 8.8062597736464934e+00 9.2948100458066403e+00 3.1593072974304319e+00 0 0 0
47 0 2 4.0000000000000000e+00 9.0606766555006590e+00 1.4463581976198611e+01 6.7736890266503016e+00 0 0 0
62 0 3 -2.0000000000000000e+00 8.3736581037873314e+00 1.3925066176457022e+01 5.3885737329324641e+00 0 0 0
42 0 1 2.0000000000000000e+00 1.0303847856223618e+01 1.3232114898652538e+01 2.4721562841763580e+00 0 0 0
56 0 3 -2.0000000000000000e+00 1.0141436410774896e+01 1.4968435157405668e+01 9.2164412674075580e-01 0 0 0
965 0 3 -2.0000000000000000e+00 1.0180336979606700e+01 1.1627356900844715e+01 6.5515320356020190e-01 0 0 1
19 0 3 -2.0000000000000000e+00 7.8033402035830086e+00 1.2404296424642771e+01 3.8859687187261832e-01 0 0 0
1228 0 1 2.0000000000000000e+00 4.5276088829836549e+00 1.5004148524335783e+01 6.2097068423135737e-01 0 0 1
61 0 3 -2.0000000000000000e+00 1.0431544194519645e+01 1.3636272089678609e+01 7.2074014496191250e+00 0 0 0
26 0 3 -2.0000000000000000e+00 8.0363318288981187e+00 1.1212918458424268e+01 7.2448157645408697e+00 0 0 0
293 0 1 2.0000000000000000e+00 4.3170541947477030e+00 1.5241301443864165e+01 5.2958636093543028e+00 0 0 0
33 0 4 1.0000000000000000e+00 1.1351214928224731e+01 9.9776099551863933e+00 7.1246952319735772e+00 0 0 0
34 0 4 1.0000000000000000e+00 1.1340402610987596e+01 8.7671122408489506e+00 7.1916094483728639e+00 0 0 0
36 0 4 1.0000000000000000e+00 9.5843649376130600e+00 8.1958530534927796e+00 3.4665063434952637e+00 0 0 0
58 0 3 -2.0000000000000000e+00 1.1802986672239864e+01 1.1266728647330719e+01 7.1712296271570404e+00 0 0 0
21 0 3 -2.0000000000000000e+00 6.5719738842918805e+00 1.5238280234140861e+01 4.0322340767252545e+00 0 0 0
14 0 3 -2.0000000000000000e+00 6.6816319993109579e+00 8.0752739283437105e+00 2.3417392054961259e+00 0 0 0
49 0 3 -2.0000000000000000e+00 1.2072944031513224e+01 1.1858746510405282e+01 3.1826428816148908e+00 0 0 0
41 0 1 2.0000000000000000e+00 1.2711798758151517e+01 1.0653128592391237e+01 5.0527059232233213e+00 0 0 0
43 0 2 4.0000000000000000e+00 1.3331184418330302e+01 1.1511786583513702e+01 2.1989477331653116e+00 0 0 0
50 0 3 -2.0000000000000000e+00 1.2998554000006239e+01 1.0029975703747892e+01 1.7095048829067054e+00 0 0 0
51 0 3 -2.0000000000000000e+00 1.4686658271604909e+01 1.1454152343582077e+01 3.0319643350228986e+00 0 0 0
53 0 3 -2.0000000000000000e+00 1.3309302703915789e+01 1.2501760637969950e+01 8.9497405102118355e-01 0 0 0
72 0 4 1.0000000000000000e+00 1.5950153973261830e+01 1.0957246564922583e+01 2.4712617537423069e+00 0 0 0
68 0 3 -2.0000000000000000e+00 1.6608321997294155e+01 1.0405289301506274e+01 1.5184913059331679e+00 0 0 0
38 0 1 2.0000000000000000e+00 1.8380016709806878e+01 1.1563121515839551e+01 3.9825163268714181e-01 0 0 0
71 0 4 1.0000000000000000e+00 1.6784635672993286e+01 9.3689785867306359e+00 1.0039747169360071e+00 0 0 0
1784 1 5 0.0000000000000000e+00 1.9075075264034982e+01 1.4896589243762826e+01 6.0509127420103397e+00 0 0 0
37 0 1 2.0000000000000000e+00 1.4342500331692444e+01 8.6005571980174462e+00 5.3336229729926377e-01 0 0 0
2104 1 5 0.0000000000000000e+00 1.9278629794160253e+01 1.4025176659458696e+01 2.1690430277508455e-01 0 0 1
63 0 3 -2.0000000000000000e+00 9.4268478010882379e+00 1.6062294987447171e+01 6.5380192982035643e+00 0 0 0
320 0 3 -2.0000000000000000e+00 6.4989244881442509e+00 1.6666367836987405e+01 2.1730547859242817e+00 0 0 0
324 0 4 1.0000000000000000e+00 5.5676461525808474e+00 1.6221035242925460e+01 3.0425190097054018e+00 0 0 0
290 0 1 2.0000000000000000e+00 6.3286820552341387e+00 1.8750163701188679e+01 1.3292953901567814e+00 0 0 0
303 0 3 -2.0000000000000000e+00 4.1198102451150715e+00 1.6365854953417447e+01 3.2445562873764295e+00 0 0 0
319 0 3 -2.0000000000000000e+00 5.8988415380768471e+00 2.0012650115833676e+01 5.4937737038983734e+00 0 0 0
322 0 4 1.0000000000000000e+00 5.2908487032250680e+00 2.1014098582705341e+01 5.1141549786114053e+00 0 0 0
338 0 3 -2.0000000000000000e+00 7.4429820591069085e+00 2.0719104575185202e+01 1.2082653553493119e+00 0 0 0
321 0 4 1.0000000000000000e+00 5.2539013509744148e+00 1.8806861763855245e+01 5.5279773037497026e+00 0 0 0
323 0 4 1.0000000000000000e+00 6.7944182209685469e+00 1.6184168036844209e+01 3.2377575052522283e+00 0 0 0
311 0 3 -2.0000000000000000e+00 4.8565126218912988e+00 1.7775989339208071e+01 6.3342781922888127e+00 0 0 0
325 0 1 2.0000000000000000e+00 8.0265586004493965e+00 1.6192371729160865e+01 5.1314739260560815e-01 0 0 0
337 0 3 -2.0000000000000000e+00 8.6144959638894925e+00 2.1766695946881146e+01 3.2977923130444831e+00 0 0 0
329 0 1 2.0000000000000000e+00 8.2060567651554290e+00 2.0730497987599364e+01 5.2141813335621698e+00 0 0 0
331 0 2 4.0000000000000000e+00 8.7190823093194449e+00 2.1559275396611266e+01 1.7587580339345381e+00 0 0 0
339 0 3 -2.0000000000000000e+00 1.0005255824227692e+01 2.0663370454117043e+01 1.2715190913017655e+00 0 0 0
360 0 4 1.0000000000000000e+00 9.8167755024682286e+00 1.9240407639838097e+01 8.9004574531227287e-01 0 0 0
48 0 2 4.0000000000000000e+00 9.8931658519740715e+00 1.7568723106167841e+01 6.7713998234109392e+00 0 0 0
64 0 3 -2.0000000000000000e+00 9.0338492993478194e+00 1.8755528983544831e+01 6.3588374104250471e+00 0 0 0
305 0 3 -2.0000000000000000e+00 3.7471608677504564e+00 1.8882004363389289e+01 2.3190646179386625e+00 0 0 0
356 0 3 -2.0000000000000000e+00 9.3082228397328954e+00 1.8249500821693832e+01 2.4661434621059503e-01 0 0 0
308 0 3 -2.0000000000000000e+00 4.5158409858956574e+00 2.2157131973364095e+01 4.8006228594549114e+00 0 0 0
304 0 3 -2.0000000000000000e+00 3.7832347904567016e+00 2.1630491965683074e+01 2.4136010070698370e+00 0 0 0
310 0 3 -2.0000000000000000e+00 4.1135496961995335e+00 1.5624298798721636e+01 7.5589637623472337e+00 0 0 0
307 0 3 -2.0000000000000000e+00 4.5009286497801169e+00 2.0274756164428545e+01 2.9127327072636888e-01 0 0 0
297 0 2 4.0000000000000000e+00 4.1162119800289796e+00 2.2859188453513735e+01 3.4311207396960630e+00 0 0 0
296 0 2 4.0000000000000000e+00 3.4837294309108353e+00 2.0293615002264268e+01 1.5745238653589377e+00 0 0 0
65 0 3 -2.0000000000000000e+00 1.1360211915420948e+01 1.7683255326882293e+01 7.4224873742894992e+00 0 0 0
472 0 1 2.0000000000000000e+00 3.4742418254913621e+00 2.2119916853299166e+01 6.8273867061366538e+00 1 0 0
328 0 1 2.0000000000000000e+00 6.5107954652927935e+00 1.9449713117883284e+01 7.6528246746970705e+00 0 0 0
1742 1 5 0.0000000000000000e+00 1.4370352446175799e+01 1.5452720182028830e+01 1.0880680201580510e+00 0 0 0
1758 1 5 0.0000000000000000e+00 1.2724849271083091e+01 2.2753541611434176e+01 2.3209616182323458e+00 0 0 0
1778 1 5 0.0000000000000000e+00 1.2668445602824349e+01 2.2182363421511234e+01 4.9087552838975768e+00 0 0 0
1780 1 5 0.0000000000000000e+00 1.3447783085992249e+01 1.9952531745686823e+01 6.3025765039635822e+00 0 0 0
1761 1 5 0.0000000000000000e+00 1.3909815930141383e+01 1.8126214293257874e+01 2.2659662555212563e+00 0 0 0
1781 1 5 0.0000000000000000e+00 1.3901502487071008e+01 1.7258999584255879e+01 5.0546897057045435e+00 0 0 0
1762 1 5 0.0000000000000000e+00 1.6939692840531087e+01 1.5687541380103067e+01 2.4690383840246706e+00 0 0 0
1782 1 5 0.0000000000000000e+00 1.6531333243097126e+01 1.6046554251146325e+01 5.1623546344514288e+00 0 0 0
1764 1 5 0.0000000000000000e+00 1.9696841193882307e+01 1.6701780092917843e+01 4.0374827211318660e+00 0 0 0
1743 1 5 0.0000000000000000e+00 1.8147648005383555e+01 1.7720359212213999e+01 9.6531559551687718e-01 0 0 0
1739 1 5 0.0000000000000000e+00 1.7041142568394864e+01 2.2259047798611586e+01 8.6661096430463402e-01 0 0 0
1740 1 5 0.0000000000000000e+00 1.6346212544059018e+01 1.9668889263006474e+01 1.4869695704244670e+00 0 0 0
1759 1 5 0.0000000000000000e+00 1.5539194527166877e+01 2.2358332027077136e+01 3.1428195816717306e+00 0 0 0
1760 1 5 0.0000000000000000e+00 1.5387656985933139e+01 1.9710779224652089e+01 4.2762567413699486e+00 0 0 0
1763 1 5 0.0000000000000000e+00 1.7959286982806056e+01 1.8811625812884945e+01 3.4969294293725244e+00 0 0 0
1779 1 5 0.0000000000000000e+00 1.5982023610400669e+01 2.2042596689745675e+01 5.9088755968162054e+00 0 0 0
1783 1 5 0.0000000000000000e+00 1.8132505006103379e+01 1.8358947425969038e+01 6.1325747130991095e+00 0 0 0
1801 1 5 0.0000000000000000e+00 1.5583192724572253e+01 1.8196220552279211e+01 7.3301126022558716e+00 0 0 0
2099 1 5 0.0000000000000000e+00 1.3888328360106069e+01 2.0569287730600024e+01 6.9012673415585724e-01 0 0 1
66 0 3 -2.0000000000000000e+00 8.0563735075128999e+00 1.4440989768649468e+01 8.0654955075851174e+00 0 0 0
30 0 3 -2.0000000000000000e+00 5.8887201727409009e+00 1.0690272521812949e+01 8.4786464635929768e+00 0 0 0
11 0 2 4.0000000000000000e+00 7.4507050566011657e+00 1.1104922959845025e+01 8.7235324466962378e+00 0 0 0
27 0 3 -2.0000000000000000e+00 7.5777494913666894e+00 1.2496548106468808e+01 9.6424864432854331e+00 0 0 0
25 0 3 -2.0000000000000000e+00 8.4194803424289528e+00 9.9228431790481171e+00 9.4016502951540932e+00 0 0 0
29 0 3 -2.0000000000000000e+00 9.0198264202043319e+00 1.4525228283195203e+01 1.0533069289813689e+01 0 0 0
12 0 2 4.0000000000000000e+00 7.6906424802474334e+00 1.4146291784480759e+01 9.6516678164353991e+00 0 0 0
23 0 3 -2.0000000000000000e+00 1.0941644297279474e+01 9.1325037294891249e+00 8.5037061906011786e+00 0 0 0
3 0 1 2.0000000000000000e+00 9.4934622760475218e+00 1.2009806646535724e+01 1.1354732124808374e+01 0 0 0
60 0 3 -2.0000000000000000e+00 1.0747137753664575e+01 1.2026941508991374e+01 9.3784130133788697e+00 0 0 0
79 0 2 4.0000000000000000e+00 9.5911164042227650e+00 9.8588531912484410e+00 1.4482560232340141e+01 0 0 0
86 0 3 -2.0000000000000000e+00 9.5753936737073406e+00 9.8554736306082997e+00 1.2882826340162355e+01 0 0 0
90 0 3 -2.0000000000000000e+00 9.6296195874181638e+00 1.3449417549565291e+01 1.3351205470550141e+01 0 0 0
80 0 2 4.0000000000000000e+00 1.0117831866271617e+01 1.2929670839382316e+01 1.4763195259739376e+01 0 0 0
46 0 2 4.0000000000000000e+00 1.1400016088792036e+01 1.2571254534936342e+01 8.0029013245820888e+00 0 0 0
10 0 2 4.0000000000000000e+00 9.4241722746819807e+00 8.6609590317444045e+00 9.0224866501731800e+00 0 0 0
28 0 3 -2.0000000000000000e+00 6.3983882634218689e+00 1.4869530755521971e+01 1.0262844854791906e+01 0 0 0
89 0 3 -2.0000000000000000e+00 9.5929872853002625e+00 1.1405523829019357e+01 1.4923596228622369e+01 0 0 0
73 0 1 2.0000000000000000e+00 8.1011696761405361e+00 8.1392187774771525e+00 1.2162451838598214e+01 0 0 0
87 0 3 -2.0000000000000000e+00 1.1026425133216913e+01 9.2705229141323642e+00 1.5042499132139787e+01 0 0 0
85 0 3 -2.0000000000000000e+00 8.3570719064788594e+00 8.9797566573064902e+00 1.4994802081572274e+01 0 0 0
91 0 3 -2.0000000000000000e+00 1.1791921375287558e+01 1.2910925252937599e+01 1.4861598295891213e+01 0 0 0
74 0 1 2.0000000000000000e+00 1.0756111296013893e+01 1.5209183077251124e+01 1.2061251111459269e+01 0 0 0
24 0 3 -2.0000000000000000e+00 9.6290641683886786e+00 7.9196927224776061e+00 1.0407011449719775e+01 0 0 0
108 0 4 1.0000000000000000e+00 1.1923487750642693e+01 8.5112184715649519e+00 1.4562210335050553e+01 0 0 0
117 0 2 4.0000000000000000e+00 1.3246137958744841e+01 1.3685766091598740e+01 1.5159677399215068e+01 0 0 0
40 0 1 2.0000000000000000e+00 1.2516847228107887e+01 1.0517552540669472e+01 9.7479750244474932e+00 0 0 0
1802 1 5 0.0000000000000000e+00 1.6708066997834290e+01 1.5041844058929716e+01 7.8111589456221591e+00 0 0 0
59 0 3 -2.0000000000000000e+00 1.2878346192187850e+01 1.3139525168011062e+01 8.4401699665585799e+00 0 0 0
39 0 1 2.0000000000000000e+00 1.3738198141306809e+01 1.4939492094313440e+01 9.2884996117387448e+00 0 0 0
122 0 3 -2.0000000000000000e+00 1.3345234920992723e+01 9.4386062039144125e+00 1.1691526219734151e+01 0 0 0
126 0 3 -2.0000000000000000e+00 1.2990641295380197e+01 1.4420109527617317e+01 1.1447184583344981e+01 0 0 0
124 0 3 -2.0000000000000000e+00 1.4067410314958522e+01 1.3821206055621076e+01 1.3755519410434662e+01 0 0 0
115 0 2 4.0000000000000000e+00 1.4273886600597175e+01 1.0467464135737973e+01 1.2536399475177181e+01 0 0 0
121 0 3 -2.0000000000000000e+00 1.4437253614396987e+01 1.0340969929651624e+01 1.4108693130435309e+01 0 0 0
125 0 3 -2.0000000000000000e+00 1.3689057143847945e+01 1.1928373323031522e+01 1.2108787198125668e+01 0 0 0
123 0 3 -2.0000000000000000e+00 1.5734453311873349e+01 1.0264320338415748e+01 1.1799241632349245e+01 0 0 0
172 0 3 -2.0000000000000000e+00 1.9414637119679902e+01 1.1843366107042870e+01 9.9223802289298710e+00 0 0 0
110 0 1 2.0000000000000000e+00 1.7302121266124168e+01 1.2055033605673801e+01 1.1005467946159948e+01 0 0 0
116 0 2 4.0000000000000000e+00 1.4098580744481556e+01 1.3507520244376634e+01 1.2160193414146601e+01 0 0 0
127 0 3 -2.0000000000000000e+00 1.5559075282562745e+01 1.3544363480210770e+01 1.1419157634497546e+01 0 0 0
144 0 4 1.0000000000000000e+00 1.5265643862306177e+01 1.0720030722057103e+01 1.5279245158299174e+01 0 0 0
409 0 3 -2.0000000000000000e+00 1.0590580410482136e+01 2.2955622006930291e+01 1.4348761918658775e+01 0 0 0
361 0 1 2.0000000000000000e+00 8.1194423652999301e+00 1.5586301154660770e+01 1.4263234907774027e+01 0 0 0
298 0 2 4.0000000000000000e+00 4.6168130984779321e+00 1.7071560679264895e+01 7.7447507067685359e+00 0 0 0
313 0 3 -2.0000000000000000e+00 3.5165628537554467e+00 1.7876435295671168e+01 8.6761258178415872e+00 0 0 0
396 0 4 1.0000000000000000e+00 1.0262661083604057e+01 1.7144897241771464e+01 1.4761284092635414e+01 0 0 0
292 0 1 2.0000000000000000e+00 4.2608286996134428e+00 1.5759391654893465e+01 1.0458542257100527e+01 0 0 0
379 0 3 -2.0000000000000000e+00 6.7566136514776369e+00 2.2032507403713009e+01 1.4001952057428559e+01 0 0 0
392 0 3 -2.0000000000000000e+00 1.0815125631419333e+01 1.6163158275270479e+01 1.4256182482081504e+01 0 0 0
312 0 3 -2.0000000000000000e+00 5.9690538596567935e+00 1.7274511680965926e+01 8.5954203460407115e+00 0 0 0
291 0 1 2.0000000000000000e+00 7.0074970950877695e+00 1.7513121001899819e+01 1.0735111705237554e+01 0 0 0
300 0 2 4.0000000000000000e+00 3.9506243533555572e+00 1.9091146463424813e+01 1.2115437907352092e+01 0 0 0
317 0 3 -2.0000000000000000e+00 4.6075418051855506e+00 1.7665812408908415e+01 1.1793785273638663e+01 0 0 0
368 0 2 4.0000000000000000e+00 5.9037911854927723e+00 2.0698286620859847e+01 1.4234534535649090e+01 0 0 0
374 0 3 -2.0000000000000000e+00 7.9040816155622622e+00 1.7544167991335591e+01 1.2873827903868426e+01 0 0 0
377 0 3 -2.0000000000000000e+00 7.0037615326265206e+00 1.9511742288128350e+01 1.4522909171950831e+01 0 0 0
378 0 3 -2.0000000000000000e+00 4.9007084509455865e+00 2.0117330270235410e+01 1.3036295068335562e+01 0 0 0
348 0 3 -2.0000000000000000e+00 6.8621814644217931e+00 2.1895788623179566e+01 1.0680773644839757e+01 0 0 0
349 0 3 -2.0000000000000000e+00 7.6846405636651109e+00 2.1671437732132606e+01 8.2969605088972926e+00 0 0 0
346 0 3 -2.0000000000000000e+00 7.6794474834406534e+00 1.9577209705800986e+01 9.7632144724424013e+00 0 0 0
367 0 2 4.0000000000000000e+00 8.3394870189984296e+00 1.8674161740080734e+01 1.3924308627795494e+01 0 0 0
334 0 2 4.0000000000000000e+00 7.9695800775913712e+00 2.1120027987011444e+01 9.8371127410387160e+00 0 0 0
347 0 3 -2.0000000000000000e+00 9.5190003474540799e+00 2.1599730611168354e+01 1.0193560736599462e+01 0 0 0
375 0 3 -2.0000000000000000e+00 9.2942569791100471e+00 1.9790933862137464e+01 1.3331006002610454e+01 0 0 0
397 0 1 2.0000000000000000e+00 1.0653284645938580e+01 2.1215315203241708e+01 1.2266010405764538e+01 0 0 0
294 0 1 2.0000000000000000e+00 4.3445307071191932e+00 2.2401040365505597e+01 9.7698968013564027e+00 0 0 0
314 0 3 -2.0000000000000000e+00 3.9615533099611522e+00 2.0348312855159030e+01 8.2507553038352217e+00 0 0 0
373 0 3 -2.0000000000000000e+00 9.0581513539507554e+00 1.7830509984253030e+01 1.5063271942738151e+01 0 0 0
315 0 3 -2.0000000000000000e+00 3.6395204684597782e+00 1.9703224123591390e+01 1.0654737800358520e+01 0 0 0
395 0 4 1.0000000000000000e+00 1.1778441726329548e+01 1.5873062762864118e+01 1.5113906311309551e+01 0 0 0
432 0 4 1.0000000000000000e+00 1.1802929774503951e+01 2.2253976343435291e+01 1.4240814666362420e+01 0 0 0
1862 1 5 0.0000000000000000e+00 1.5781304102917616e+01 1.7718741726194473e+01 1.5008293822226040e+01 0 0 0
69 0 4 1.0000000000000000e+00 1.4748165540345910e+01 1.7429885704435019e+01 7.7477092194227204e+00 0 0 0
1840 1 5 0.0000000000000000e+00 1.7880775497640432e+01 1.9984787072983679e+01 1.3399101429160680e+01 0 0 0
428 0 3 -2.0000000000000000e+00 1.2664058440378099e+01 2.1588202398525432e+01 1.3609551919218342e+01 0 0 0
1820 1 5 0.0000000000000000e+00 1.3306901111597357e+01 1.9206812943690455e+01 1.1764764365204092e+01 0 0 0
431 0 4 1.0000000000000000e+00 1.3829782129178462e+01 2.1245165316821140e+01 1.3627355718961546e+01 0 0 0
1821 1 5 0.0000000000000000e+00 1.6335368769818015e+01 1.9453112261742930e+01 9.9039390516372610e+00 0 0 0
1800 1 5 0.0000000000000000e+00 1.3038112920451297e+01 1.9317650130425385e+01 9.0243596124868812e+00 0 0 0
70 0 4 1.0000000000000000e+00 1.2540711505369201e+01 1.7282475959041921e+01 7.8892137198563637e+00 0 0 0
1843 1 5 0.0000000000000000e+00 1.7907670430133120e+01 1.6033472914353922e+01 1.3930951181593237e+01 0 0 0
1842 1 5 0.0000000000000000e+00 1.6180447447859912e+01 1.7986030592007175e+01 1.2260665140971064e+01 0 0 0
1822 1 5 0.0000000000000000e+00 1.5627204655517296e+01 1.6173878586143580e+01 1.0228338015849287e+01 0 0 0
1838 1 5 0.0000000000000000e+00 1.7459979575382697e+01 2.2494252461045321e+01 1.1930266626075618e+01 0 0 0
1841 1 5 0.0000000000000000e+00 1.3720660360864397e+01 1.6712002625432419e+01 1.3078161268913474e+01 0 0 0
1858 1 5 0.0000000000000000e+00 1.6827203956580007e+01 2.2547941125557998e+01 1.4694840954877197e+01 0 0 0
1819 1 5 0.0000000000000000e+00 1.4701509585364398e+01 2.1624981844991886e+01 1.1084127260380054e+01 0 0 0
1803 1 5 0.0000000000000000e+00 1.8083114684926951e+01 1.7509289535429204e+01 8.7297564777281984e+00 0 0 0
1823 1 5 0.0000000000000000e+00 1.8351203400799676e+01 1.6257234070850703e+01 1.1183321978181262e+01 0 0 0
1799 1 5 0.0000000000000000e+00 1.4944179502928776e+01 2.1372880832177838e+01 8.3486734162020841e+00 0 0 0
1839 1 5 0.0000000000000000e+00 1.4986313802197269e+01 2.0774544999052321e+01 1.3668387907205478e+01 0 0 0
67 0 3 -2.0000000000000000e+00 1.3794433268883184e+01 1.6827504628165347e+01 8.1709017920432334e+00 0 0 0
1861 1 5 0.0000000000000000e+00 1.3126793140509140e+01 1.9041344796124328e+01 1.4932982723030218e+01 0 0 0
1844 1 5 0.0000000000000000e+00 2.0468408476304425e+01 1.4402008390829046e+01 1.3586365302867442e+01 0 0 0
102 0 3 -2.0000000000000000e+00 8.7707773927257442e+00 1.3324781849196404e+01 1.8302811095007819e+01 0 0 0
82 0 2 4.0000000000000000e+00 9.6182105361546224e+00 9.1531549161589272e+00 1.9737493683863981e+01 0 0 0
83 0 2 4.0000000000000000e+00 9.7660232510864162e+00 1.2195545680430770e+01 1.9005777884086996e+01 0 0 0
95 0 3 -2.0000000000000000e+00 1.1200928989322801e+01 8.7080756539345074e+00 1.9414825103622189e+01 0 0 0
96 0 3 -2.0000000000000000e+00 9.5242568481865497e+00 9.2254155724636000e+00 2.1302688155497290e+01 0 0 0
97 0 3 -2.0000000000000000e+00 9.3346263852892903e+00 1.0632156199797071e+01 1.9087173134306788e+01 0 0 0
98 0 3 -2.0000000000000000e+00 1.1189741794472317e+01 1.2261108177349543e+01 1.8184344847528067e+01 0 0 0
99 0 3 -2.0000000000000000e+00 1.0214059449158386e+01 1.2680740396953137e+01 2.0499045436116479e+01 0 0 0
84 0 2 4.0000000000000000e+00 1.1392330129030876e+01 1.3451956905877958e+01 2.1350692500059161e+01 0 0 0
81 0 2 4.0000000000000000e+00 8.8813074258191502e+00 1.4583500234019505e+01 1.7258480260901425e+01 0 0 0
100 0 3 -2.0000000000000000e+00 1.1491637902440749e+01 1.4822107066218289e+01 2.0610798738476849e+01 0 0 0
88 0 3 -2.0000000000000000e+00 9.4886139131565663e+00 1.3889291078481335e+01 1.5898939708922512e+01 0 0 0
918 0 3 -2.0000000000000000e+00 1.1116681610382244e+01 1.3708958789335387e+01 2.2923870396854571e+01 0 0 0
94 0 3 -2.0000000000000000e+00 8.7194427321889396e+00 8.0463386728149473e+00 1.9062573148403764e+01 0 0 0
76 0 1 2.0000000000000000e+00 1.1870141000466717e+01 9.0841758173160763e+00 2.2278574608043726e+01 0 0 0
105 0 4 1.0000000000000000e+00 1.2238869295472908e+01 8.7342690589253724e+00 1.8607773036544067e+01 0 0 0
75 0 1 2.0000000000000000e+00 1.2466008125839155e+01 1.0921313192969416e+01 1.6795383543806729e+01 0 0 0
101 0 3 -2.0000000000000000e+00 1.2853378707481555e+01 1.2657011739772594e+01 2.1254512649323232e+01 0 0 0
78 0 1 2.0000000000000000e+00 1.2432589379378793e+01 1.4590973158326850e+01 1.8245007302753077e+01 0 0 0
128 0 3 -2.0000000000000000e+00 1.4052796684597139e+01 1.2802329796436265e+01 1.6221317664205635e+01 0 0 0
136 0 3 -2.0000000000000000e+00 1.4328118966865944e+01 1.3400554345811104e+01 1.9270464248252857e+01 0 0 0
135 0 3 -2.0000000000000000e+00 1.4930540692642840e+01 1.1101425488583059e+01 1.9953509399887405e+01 0 0 0
120 0 2 4.0000000000000000e+00 1.4388836635389877e+01 1.2525224685425272e+01 2.0564290348861078e+01 0 0 0
106 0 4 1.0000000000000000e+00 1.4339356726446054e+01 8.9516134045879827e+00 1.8377975809336938e+01 0 0 0
138 0 3 -2.0000000000000000e+00 1.5946882770996286e+01 9.0388424016940014e+00 1.8705077482685684e+01 0 0 0
133 0 3 -2.0000000000000000e+00 1.6340415908464291e+01 9.5143720105475023e+00 2.1413634887158434e+01 0 0 0
143 0 4 1.0000000000000000e+00 1.6130611818202187e+01 9.6166693314371248e+00 1.7285660844167825e+01 0 0 0
119 0 2 4.0000000000000000e+00 1.6226288969692856e+01 1.0061081559870347e+01 1.9912545431114246e+01 0 0 0
137 0 3 -2.0000000000000000e+00 1.5510867675971770e+01 1.2823664020106582e+01 2.1703611897445978e+01 0 0 0
134 0 3 -2.0000000000000000e+00 1.7515373713489598e+01 1.1007037675750555e+01 1.9586544810742176e+01 0 0 0
114 0 1 2.0000000000000000e+00 1.5753382466119426e+01 1.2377339919420242e+01 1.7641185552007670e+01 0 0 0
139 0 3 -2.0000000000000000e+00 1.9764863193790291e+01 1.1963905740934011e+01 2.0742853786364286e+01 0 0 0
142 0 4 1.0000000000000000e+00 1.8856909095492359e+01 1.1491494923937447e+01 1.9939903672758980e+01 0 0 0
140 0 3 -2.0000000000000000e+00 1.5699296358633902e+01 1.0313312509362227e+01 1.6431667832971531e+01 0 0 0
129 0 3 -2.0000000000000000e+00 1.2750114763665065e+01 1.5033793182287660e+01 1.5822657903259005e+01 0 0 0
103 0 3 -2.0000000000000000e+00 1.3306618895406507e+01 8.9482635666755730e+00 1.7766125079606415e+01 0 0 0
113 0 1 2.0000000000000000e+00 1.4243051135371145e+01 8.4950488936115729e+00 1.5648498346314518e+01 0 0 0
1904 1 5 0.0000000000000000e+00 1.9317586634576248e+01 1.5021137403065786e+01 2.0697579011749138e+01 0 0 0
111 0 1 2.0000000000000000e+00 1.7816099782251797e+01 1.2017015211201009e+01 2.2314408973389863e+01 0 0 0
1864 1 5 0.0000000000000000e+00 1.9638554101336332e+01 1.5018910564503731e+01 1.6066607096722787e+01 0 0 0
1902 1 5 0.0000000000000000e+00 1.6071575197118936e+01 1.5293319710242862e+01 1.9231920928678846e+01 0 0 0
132 0 3 -2.0000000000000000e+00 1.4055443736904738e+01 9.9260409011300421e+00 2.2661441527510355e+01 0 0 0
118 0 2 4.0000000000000000e+00 1.5589500106219852e+01 9.5120374593951365e+00 2.2875451427873507e+01 0 0 0
1863 1 5 0.0000000000000000e+00 1.6558996819965362e+01 1.5296103530897714e+01 1.6387571319406103e+01 0 0 0
93 0 3 -2.0000000000000000e+00 7.6897732222380659e+00 1.5457080083408323e+01 1.6703528263962003e+01 0 0 0
92 0 3 -2.0000000000000000e+00 9.9577654846709951e+00 1.5562294238797822e+01 1.7998347472773901e+01 0 0 0
370 0 2 4.0000000000000000e+00 7.3283049281842114e+00 1.8992182477835719e+01 2.0801745051735047e+01 0 0 0
371 0 2 4.0000000000000000e+00 6.3302382656483918e+00 2.1265156314199888e+01 1.8861927798038945e+01 0 0 0
384 0 3 -2.0000000000000000e+00 6.2448480945759277e+00 1.8132991729144909e+01 2.1594616285438281e+01 0 0 0
385 0 3 -2.0000000000000000e+00 6.4891461427481927e+00 1.9968202318212207e+01 1.9774515410776530e+01 0 0 0
390 0 3 -2.0000000000000000e+00 4.8655659313468762e+00 2.1383059772469558e+01 1.8068404903262532e+01 0 0 0
1154 0 1 2.0000000000000000e+00 4.2527215316485423e+00 1.8279616329028340e+01 2.2548665316897019e+01 0 0 0
386 0 3 -2.0000000000000000e+00 7.5568217325830078e+00 2.1124207266952965e+01 1.7809915994737541e+01 0 0 0
382 0 3 -2.0000000000000000e+00 8.3679598578760359e+00 1.8099290199499542e+01 1.9907184091943250e+01 0 0 0
364 0 1 2.0000000000000000e+00 9.7403957191892481e+00 1.6291966376930340e+01 2.0226564261917563e+01 0 0 0
365 0 1 2.0000000000000000e+00 8.6057151650452468e+00 1.7954157468987493e+01 1.7358634033075198e+01 0 0 0
383 0 3 -2.0000000000000000e+00 8.0681169827537467e+00 1.9970004514115345e+01 2.1848985479062343e+01 0 0 0
391 0 3 -2.0000000000000000e+00 9.8149028429357568e+00 2.0136539723136099e+01 1.7222574059864218e+01 0 0 0
393 0 4 1.0000000000000000e+00 1.1003651509587863e+01 2.0355852899893218e+01 1.7544397749939417e+01 0 0 0
394 0 4 1.0000000000000000e+00 8.7354028316403998e+00 2.0650959738463900e+01 1.7771849077120859e+01 0 0 0
418 0 3 -2.0000000000000000e+00 1.0981905767042980e+01 2.2499528843827271e+01 2.1541340068205351e+01 0 0 0
369 0 2 4.0000000000000000e+00 4.2326166633337881e+00 2.1938976092692531e+01 1.6667212889057851e+01 0 0 0
387 0 3 -2.0000000000000000e+00 6.4346969300490162e+00 2.2585282948904727e+01 1.9824731684186180e+01 0 0 0
1171 0 3 -2.0000000000000000e+00 3.7107339903210979e+00 2.0734602306527588e+01 2.2391340386369500e+01 0 0 0
401 0 1 2.0000000000000000e+00 8.8543699446595632e+00 2.1810630850117654e+01 1.5601812781439133e+01 0 0 0
376 0 3 -2.0000000000000000e+00 4.8765124255500494e+00 2.1079920626178296e+01 1.5431638359177976e+01 0 0 0
400 0 1 2.0000000000000000e+00 9.5552017691705231e+00 2.1242587895908226e+01 2.2996463176994368e+01 0 0 0
544 0 1 2.0000000000000000e+00 3.3578674974650813e+00 2.2737158050654358e+01 2.0781096926466788e+01 1 0 0
1879 1 5 0.0000000000000000e+00 1.2185593294448433e+01 2.0645583402855141e+01 1.8037545008945102e+01 0 0 0
1900 1 5 0.0000000000000000e+00 1.3191690640958498e+01 1.9829295413771657e+01 2.0479637985198650e+01 0 0 0
1881 1 5 0.0000000000000000e+00 1.3598983071871004e+01 1.7901765867844997e+01 1.7478380593355993e+01 0 0 0
1859 1 5 0.0000000000000000e+00 1.3978558385429748e+01 2.1799056259472373e+01 1.6257017387749244e+01 0 0 0
1898 1 5 0.0000000000000000e+00 1.4073006999477931e+01 2.2481195565532211e+01 1.9678800336590413e+01 0 0 0
1883 1 5 0.0000000000000000e+00 1.8622447115498122e+01 1.6061088907763619e+01 1.8303354319280473e+01 0 0 0
1922 1 5 0.0000000000000000e+00 1.5498378607509819e+01 1.6208852489383137e+01 2.1982327738986857e+01 0 0 0
1901 1 5 0.0000000000000000e+00 1.5099308036684269e+01 1.7839849336760722e+01 1.9856124785294337e+01 0 0 0
1903 1 5 0.0000000000000000e+00 1.8115155622291571e+01 1.7877583429316108e+01 2.0279581283803463e+01 0 0 0
1882 1 5 0.0000000000000000e+00 1.6879165723511967e+01 1.8061930668209076e+01 1.7664099534339094e+01 0 0 0
1860 1 5 0.0000000000000000e+00 1.6498805653559199e+01 2.0227405978340183e+01 1.6036499532401937e+01 0 0 0
1878 1 5 0.0000000000000000e+00 1.6395694341165793e+01 2.2669029590430423e+01 1.7772334572896149e+01 0 0 0
1880 1 5 0.0000000000000000e+00 1.5129493533744160e+01 2.0211151170309435e+01 1.8439626242081275e+01 0 0 0
1899 1 5 0.0000000000000000e+00 1.6960633465922797e+01 2.1410250788596493e+01 2.0297940096414429e+01 0 0 0
1921 1 5 0.0000000000000000e+00 1.6456074247311854e+01 1.9155272440882655e+01 2.1921974281790753e+01 0 0 0
1923 1 5 0.0000000000000000e+00 1.8174109138358133e+01 1.7118279513979616e+01 2.2964023388022312e+01 0 0 0
866 0 1 2.0000000000000000e+00 8.4933568289086914e+00 1.0228852114487509e+01 2.3133359613828816e+01 0 0 0
901 0 1 2.0000000000000000e+00 8.9269271564658190e+00 8.6382612278142137e+00 2.6929565319445391e+01 0 0 0
883 0 3 -2.0000000000000000e+00 7.0712688023457320e+00 1.1978889488956076e+01 2.3345996116432705e+01 0 0 0
879 0 3 -2.0000000000000000e+00 7.1830395620269503e+00 9.2897724192701379e+00 2.5192291410438752e+01 0 0 0
882 0 3 -2.0000000000000000e+00 5.2776993322897487e+00 1.3807822662814626e+01 2.4402833427808886e+01 0 0 0
871 0 2 4.0000000000000000e+00 5.9424976644718663e+00 9.9308572408942037e+00 2.6032701876679432e+01 0 0 0
872 0 2 4.0000000000000000e+00 6.2122673894009131e+00 1.2560517403855689e+01 2.4553927463686982e+01 0 0 0
881 0 3 -2.0000000000000000e+00 5.4839769358671075e+00 1.1292534492677508e+01 2.5284145479787490e+01 0 0 0
870 0 1 2.0000000000000000e+00 7.5509687605249569e+00 1.1412110318787702e+01 2.9143551500844556e+01 0 0 0