LAMMPS data file via write_data, version 12 Dec 2018, timestep = 500000

2108 atoms
5 atom types

3.9658539273772906e+00 3.7034146072622278e+01 xlo xhi
7.8505010294105286e+00 3.8149498970587779e+01 ylo yhi
-8.1379598360959204e-01 4.6813795983609182e+01 zlo zhi

Masses

1 40.08
2 28.09
3 16
4 1
5 12.0107

Atoms # full

7 0 2 4.0000000000000000e+00 7.6179264956567696e+00 9.4311129582316529e+00 2.2562430945231426e+00 0 0 0
8 0 2 4.0000000000000000e+00 7.2920327502252853e+00 1.2302362871231820e+01 8.1330686798340246e-01 0 0 0
13 0 3 -2.0000000000000000e+00 7.2199960081035544e+00 9.6661004499991279e+00 3.8188031480668951e+00 0 0 0
16 0 3 -2.0000000000000000e+00 8.0583506646947036e+00 1.3057706972895767e+01 2.1772119613366319e+00 0 0 0
17 0 3 -2.0000000000000000e+00 7.2423254497917995e+00 1.0767859554318349e+01 1.3280455655331436e+00 0 0 0
20 0 3 -2.0000000000000000e+00 6.3514438170190246e+00 1.3056303137727122e+01 4.3433623711309650e+00 0 0 0
5 0 1 2.0000000000000000e+00 9.3005232340963389e+00 9.5123347704301189e+00 5.1489106983597450e+00 0 0 0
6 0 1 2.0000000000000000e+00 6.2145346866959263e+00 1.1023184808196747e+01 5.4848742126092400e+00 0 0 0
9 0 2 4.0000000000000000e+00 7.5837893234278591e+00 1.3773266998857816e+01 3.6206342258939386e+00 0 0 0
18 0 3 -2.0000000000000000e+00 6.0013514963581640e+00 1.3093813037182137e+01 5.5389866756814243e-01 0 0 0
31 0 3 -2.0000000000000000e+00 1.1611267896940943e+01 9.1974410797529469e+00 5.4480447497409745e+00 0 0 0
2 0 1 2.0000000000000000e+00 1.1077991809569681e+01 9.5864829219306316e+00 7.8570807874421855e-01 0 0 0
15 0 3 -2.0000000000000000e+00 9.2560190130788911e+00 9.2948100458066403e+00 2.3656795893261271e+00 0 0 0
47 0 2 4.0000000000000000e+00 9.5006506303140945e+00 1.4463581976198611e+01 6.1246365877307243e+00 0 0 0
62 0 3 -2.0000000000000000e+00 8.8400558690406204e+00 1.3925066176457022e+01 4.6841166822527951e+00 0 0 0
42 0 1 2.0000000000000000e+00 1.0696007554099346e+01 1.3232114898652538e+01 1.6510425355405132e+00 0 0 0
56 0 3 -2.0000000000000000e+00 1.0539842702651498e+01 1.4968435157405668e+01 3.8509891810796060e-02 0 0 0
965 0 3 -2.0000000000000000e+00 1.0577247095761473e+01 1.1627356900844715e+01 -2.3864066829668024e-01 0 0 1
19 0 3 -2.0000000000000000e+00 8.2916732726695663e+00 1.2404296424642771e+01 -5.1585925325289694e-01 0 0 0
1228 0 1 2.0000000000000000e+00 5.1419316182609442e+00 1.5004148524335783e+01 -2.7419048839982335e-01 0 0 1
61 0 3 -2.0000000000000000e+00 1.0818792494744953e+01 1.3636272089678609e+01 6.5756975076214825e+00 0 0 0
26 0 3 -2.0000000000000000e+00 8.5157036816505389e+00 1.1212918458424268e+01 6.6146083951366652e+00 0 0 0
293 0 1 2.0000000000000000e+00 4.9394751872461100e+00 1.5241301443864165e+01 4.5876981537119796e+00 0 0 0
33 0 4 1.0000000000000000e+00 1.1703091277145338e+01 9.9776099551863933e+00 6.4896830412361277e+00 0 0 0
34 0 4 1.0000000000000000e+00 1.1692694818292804e+01 8.7671122408489506e+00 6.5592738263243184e+00 0 0 0
36 0 4 1.0000000000000000e+00 1.0004197055438913e+01 8.1958530534927796e+00 2.6851665972350598e+00 0 0 0
58 0 3 -2.0000000000000000e+00 1.2137487184852917e+01 1.1266728647330719e+01 6.5380788122573152e+00 0 0 0
21 0 3 -2.0000000000000000e+00 7.1076671964350009e+00 1.5238280234140861e+01 3.2735234397952953e+00 0 0 0
14 0 3 -2.0000000000000000e+00 7.2131076916770960e+00 8.0752739283437105e+00 1.5154087737181812e+00 0 0 0
49 0 3 -2.0000000000000000e+00 1.2397061568763181e+01 1.1858746510405282e+01 2.3899485968847372e+00 0 0 0
41 0 1 2.0000000000000000e+00 1.3011344959767277e+01 1.0653128592391237e+01 4.3348141601500423e+00 0 0 0
43 0 2 4.0000000000000000e+00 1.3606908094582707e+01 1.1511786583513702e+01 1.3669056424960453e+00 0 0 0
50 0 3 -2.0000000000000000e+00 1.3287071153822023e+01 1.0029975703747892e+01 8.5788507822488747e-01 0 0 0
51 0 3 -2.0000000000000000e+00 1.4910248338083194e+01 1.1454152343582077e+01 2.2332429084243666e+00 0 0 0
53 0 3 -2.0000000000000000e+00 1.3585867984540771e+01 1.2501760637969950e+01 1.0773013063513087e-02 0 0 0
72 0 4 1.0000000000000000e+00 1.6125148051261622e+01 1.0957246564922583e+01 1.6501122238950217e+00 0 0 0
68 0 3 -2.0000000000000000e+00 1.6758001920344292e+01 1.0405289301506274e+01 6.5923095816601596e-01 0 0 0
38 0 1 2.0000000000000000e+00 1.8461554528771345e+01 1.1563121515839551e+01 -5.0581830200489175e-01 0 0 0
71 0 4 1.0000000000000000e+00 1.6927534300907258e+01 9.3689785867306359e+00 1.2413370561274414e-01 0 0 0
1784 1 5 0.0000000000000000e+00 1.9347595034233819e+01 1.4968700791122956e+01 6.2683037220840889e+00 0 0 0
37 0 1 2.0000000000000000e+00 1.4579327242011779e+01 8.6005571980174462e+00 -3.6530321080890288e-01 0 0 0
63 0 3 -2.0000000000000000e+00 9.8527382702631012e+00 1.6062294987447171e+01 5.8795400701438973e+00 0 0 0
320 0 3 -2.0000000000000000e+00 7.0374273924361574e+00 1.6666367836987405e+01 1.3399769773596935e+00 0 0 0
324 0 4 1.0000000000000000e+00 6.1419674544025851e+00 1.6221035242925460e+01 2.2442197700935371e+00 0 0 0
290 0 1 2.0000000000000000e+00 6.8737327453954604e+00 1.8750163701188679e+01 4.6246720576673755e-01 0 0 0
303 0 3 -2.0000000000000000e+00 4.7498175433827159e+00 1.6365854953417447e+01 2.4543385388673244e+00 0 0 0
319 0 3 -2.0000000000000000e+00 6.4604245558375020e+00 2.0012650115833676e+01 4.7935246520573829e+00 0 0 0
322 0 4 1.0000000000000000e+00 5.8758160608142145e+00 2.1014098582705341e+01 4.3987211777598292e+00 0 0 0
338 0 3 -2.0000000000000000e+00 7.9451750568296182e+00 2.0719104575185202e+01 3.3659596956018778e-01 0 0 0
321 0 4 1.0000000000000000e+00 5.8402897605336710e+00 1.8806861763855245e+01 4.8290963958857054e+00 0 0 0
323 0 4 1.0000000000000000e+00 7.3215559816956688e+00 1.6184168036844209e+01 2.4472678054600530e+00 0 0 0
311 0 3 -2.0000000000000000e+00 5.4581852133563897e+00 1.7775989339208071e+01 5.6676493199669347e+00 0 0 0
325 0 1 2.0000000000000000e+00 8.5063063466260314e+00 1.6192371729160865e+01 -3.8632671169061034e-01 0 0 0
337 0 3 -2.0000000000000000e+00 9.0716307345041862e+00 2.1766695946881146e+01 2.5097040055757120e+00 0 0 0
329 0 1 2.0000000000000000e+00 8.6789007357535439e+00 2.0730497987599364e+01 4.5027485869057378e+00 0 0 0
331 0 2 4.0000000000000000e+00 9.1721945281790376e+00 2.1559275396611266e+01 9.0910835529108203e-01 0 0 0
339 0 3 -2.0000000000000000e+00 1.0408899830972207e+01 2.0663370454117043e+01 4.0237985494923356e-01 0 0 0
360 0 4 1.0000000000000000e+00 1.0227668752344293e+01 1.9240407639838097e+01 5.6475751231860345e-03 0 0 0
48 0 2 4.0000000000000000e+00 1.0301121011518926e+01 1.7568723106167841e+01 6.1222558163562022e+00 0 0 0
64 0 3 -2.0000000000000000e+00 9.4748550954848518e+00 1.8755528983544831e+01 5.6931909068196092e+00 0 0 0
305 0 3 -2.0000000000000000e+00 4.3915008343784541e+00 1.8882004363389289e+01 1.4918272026544950e+00 0 0 0
356 0 3 -2.0000000000000000e+00 9.7386758074639967e+00 1.8249500821693832e+01 -6.6352107994216103e-01 0 0 0
308 0 3 -2.0000000000000000e+00 5.1306163325754559e+00 2.2157131973364095e+01 4.0726477738201474e+00 0 0 0
304 0 3 -2.0000000000000000e+00 4.4261872985157238e+00 2.1630491965683074e+01 1.5901450473530683e+00 0 0 0
310 0 3 -2.0000000000000000e+00 4.7437977848647872e+00 1.5624298798721636e+01 6.9413223128573005e+00 0 0 0
307 0 3 -2.0000000000000000e+00 5.1162775478280116e+00 2.0274756164428545e+01 -6.1707579844353011e-01 0 0 0
297 0 2 4.0000000000000000e+00 4.7463576730827945e+00 2.2859188453513735e+01 2.6483655692757222e+00 0 0 0
296 0 2 4.0000000000000000e+00 4.1382013759029039e+00 2.0293615002264268e+01 7.1750481997778881e-01 0 0 0
65 0 3 -2.0000000000000000e+00 1.1711742226401116e+01 1.7683255326882293e+01 6.7993868692671562e+00 0 0 0
472 0 1 2.0000000000000000e+00 4.1290786783519859e+00 2.2119916853299166e+01 6.1804821743921456e+00 1 0 0
328 0 1 2.0000000000000000e+00 7.0488417935426710e+00 1.9449713117883284e+01 7.0389376616768562e+00 0 0 0
1742 1 5 0.0000000000000000e+00 1.4641893303942940e+01 1.5478260863893073e+01 1.3013885532448661e+00 0 0 0
1758 1 5 0.0000000000000000e+00 1.2920663303037278e+01 2.2761465839905039e+01 2.5350794571469755e+00 0 0 0
1778 1 5 0.0000000000000000e+00 1.2867779946245125e+01 2.2188907410150446e+01 5.1226426310929707e+00 0 0 0
1780 1 5 0.0000000000000000e+00 1.3668639352007739e+01 1.9966718173401688e+01 6.5164694576396238e+00 0 0 0
1761 1 5 0.0000000000000000e+00 1.4152965539830928e+01 1.8146523433056984e+01 2.4797066693294880e+00 0 0 0
1781 1 5 0.0000000000000000e+00 1.4151018339592861e+01 1.7278371380605019e+01 5.2681503866885393e+00 0 0 0
1762 1 5 0.0000000000000000e+00 1.7207453257473169e+01 1.5738915023543706e+01 2.6847507674513436e+00 0 0 0
1782 1 5 0.0000000000000000e+00 1.6793019570715167e+01 1.6092863684758921e+01 5.3778096939925666e+00 0 0 0
1764 1 5 0.0000000000000000e+00 1.9952667329902980e+01 1.6780807180177952e+01 4.2560001074124640e+00 0 0 0
1743 1 5 0.0000000000000000e+00 1.8395896264946231e+01 1.7784470349533056e+01 1.1827544317682537e+00 0 0 0
1739 1 5 0.0000000000000000e+00 1.7243096315212750e+01 2.2311630972393122e+01 1.0844703820895163e+00 0 0 0
1740 1 5 0.0000000000000000e+00 1.6574148692188626e+01 1.9714297851890642e+01 1.7033916225528813e+00 0 0 0
1759 1 5 0.0000000000000000e+00 1.5738164718441428e+01 2.2394809137243787e+01 3.3593536048910564e+00 0 0 0
1760 1 5 0.0000000000000000e+00 1.5612706739909166e+01 1.9745479652350113e+01 4.4918256941170611e+00 0 0 0
1763 1 5 0.0000000000000000e+00 1.8194102225494145e+01 1.8872937476475357e+01 3.7145385324013787e+00 0 0 0
1779 1 5 0.0000000000000000e+00 1.6181713628722711e+01 2.2082731002657471e+01 6.1257095162624768e+00 0 0 0
1783 1 5 0.0000000000000000e+00 1.8369572856567412e+01 1.8421206754465725e+01 6.3501976043846087e+00 0 0 0
1839 1 5 0.0000000000000000e+00 1.5192053536065606e+01 2.0802059653277407e+01 1.3883923699356526e+01 0 0 0
1741 1 5 0.0000000000000000e+00 1.5024548327545723e+01 1.7852027989963965e+01 -3.7968303998913500e-01 0 0 0
66 0 3 -2.0000000000000000e+00 8.5349745264548584e+00 1.4440989768649468e+01 7.4681153278747789e+00 0 0 0
30 0 3 -2.0000000000000000e+00 6.4506924737829285e+00 1.0690272521812949e+01 7.8977923221664410e+00 0 0 0
11 0 2 4.0000000000000000e+00 7.9526010159724843e+00 1.1104922959845025e+01 8.1524737445801563e+00 0 0 0
27 0 3 -2.0000000000000000e+00 8.0747591263023804e+00 1.2496548106468808e+01 9.1081859010568866e+00 0 0 0
25 0 3 -2.0000000000000000e+00 8.8841157139131806e+00 9.9228431790481171e+00 8.8577163070001763e+00 0 0 0
29 0 3 -2.0000000000000000e+00 9.4613715579045081e+00 1.4525228283195203e+01 1.0034392061365192e+01 0 0 0
12 0 2 4.0000000000000000e+00 8.1833100771642169e+00 1.4146291784480759e+01 9.1177345291060430e+00 0 0 0
23 0 3 -2.0000000000000000e+00 1.1309273362745037e+01 9.1325037294891249e+00 7.9238544381892906e+00 0 0 0
3 0 1 2.0000000000000000e+00 9.9167906500052112e+00 1.2009806646535724e+01 1.0888921409825597e+01 0 0 0
60 0 3 -2.0000000000000000e+00 1.1122247840095598e+01 1.2026941508991374e+01 8.8335495339550736e+00 0 0 0
79 0 2 4.0000000000000000e+00 1.0010688850182660e+01 9.8588531912484410e+00 1.4141862641620140e+01 0 0 0
86 0 3 -2.0000000000000000e+00 9.9955708401009371e+00 9.8554736306082997e+00 1.2478139393763540e+01 0 0 0
90 0 3 -2.0000000000000000e+00 1.0047711141751670e+01 1.3449417549565291e+01 1.2965253689355970e+01 0 0 0
80 0 2 4.0000000000000000e+00 1.0517146025289193e+01 1.2929670839382316e+01 1.4433723070111197e+01 0 0 0
46 0 2 4.0000000000000000e+00 1.1750015469971220e+01 1.2571254534936342e+01 7.4030173775634065e+00 0 0 0
10 0 2 4.0000000000000000e+00 9.8501656487202531e+00 8.6609590317444045e+00 8.4633861161731954e+00 0 0 0
28 0 3 -2.0000000000000000e+00 6.9407579456009740e+00 1.4869530755521971e+01 9.7533586490121706e+00 0 0 0
89 0 3 -2.0000000000000000e+00 1.0012487774332378e+01 1.1405523829019357e+01 1.4600540077781908e+01 0 0 0
73 0 1 2.0000000000000000e+00 8.5780477655447136e+00 8.1392187774771525e+00 1.1728949912123809e+01 0 0 0
87 0 3 -2.0000000000000000e+00 1.1390793397306600e+01 9.2705229141323642e+00 1.4724199097414656e+01 0 0 0
85 0 3 -2.0000000000000000e+00 8.8241076023975396e+00 8.9797566573064902e+00 1.4674594164817343e+01 0 0 0
91 0 3 -2.0000000000000000e+00 1.2126847476253984e+01 1.2910925252937599e+01 1.4536062227704170e+01 0 0 0
74 0 1 2.0000000000000000e+00 1.1130876246187144e+01 1.5209183077251124e+01 1.1623701155904016e+01 0 0 0
24 0 3 -2.0000000000000000e+00 1.0047177084949876e+01 7.9196927224776061e+00 9.9032919077164614e+00 0 0 0
108 0 4 1.0000000000000000e+00 1.2253353606390270e+01 8.5112184715649519e+00 1.4224698748483954e+01 0 0 0
117 0 2 4.0000000000000000e+00 1.3525132652660375e+01 1.3685766091598740e+01 1.4846064495171499e+01 0 0 0
40 0 1 2.0000000000000000e+00 1.2823891565504754e+01 1.0517552540669472e+01 9.2178940254319759e+00 0 0 0
1802 1 5 0.0000000000000000e+00 1.6977642531308561e+01 1.5089161822057356e+01 8.0264583450943121e+00 0 0 0
59 0 3 -2.0000000000000000e+00 1.3171486723229654e+01 1.3139525168011062e+01 7.8577767652122246e+00 0 0 0
39 0 1 2.0000000000000000e+00 1.3998267443590841e+01 1.4939492094313440e+01 8.7400395961993897e+00 0 0 0
122 0 3 -2.0000000000000000e+00 1.3620418193218953e+01 9.4386062039144125e+00 1.1239187268572357e+01 0 0 0
126 0 3 -2.0000000000000000e+00 1.3279462784024071e+01 1.4420109527617317e+01 1.0985071966645981e+01 0 0 0
124 0 3 -2.0000000000000000e+00 1.4314817610536508e+01 1.3821206055621076e+01 1.3385740186835694e+01 0 0 0
115 0 2 4.0000000000000000e+00 1.4513352500575870e+01 1.0467464135737973e+01 1.2117855454174599e+01 0 0 0
121 0 3 -2.0000000000000000e+00 1.4670436167694305e+01 1.0340969929651624e+01 1.3753040855686285e+01 0 0 0
125 0 3 -2.0000000000000000e+00 1.3951016484514398e+01 1.1928373323031522e+01 1.1673138686043568e+01 0 0 0
123 0 3 -2.0000000000000000e+00 1.5917743569052448e+01 1.0264320338415748e+01 1.1351211297679006e+01 0 0 0
172 0 3 -2.0000000000000000e+00 1.9456381845791149e+01 1.1843366107042870e+01 9.3992754380819150e+00 0 0 0
110 0 1 2.0000000000000000e+00 1.7425116601994304e+01 1.2055033605673801e+01 1.0525686663996160e+01 0 0 0
116 0 2 4.0000000000000000e+00 1.4344789177388348e+01 1.3507520244376634e+01 1.1726601150759825e+01 0 0 0
127 0 3 -2.0000000000000000e+00 1.5749110848612556e+01 1.3544363480210770e+01 1.0955923939898366e+01 0 0 0
144 0 4 1.0000000000000000e+00 1.5466965252181513e+01 1.0720030722057103e+01 1.4970414964666119e+01 0 0 0
409 0 3 -2.0000000000000000e+00 1.0971711933152484e+01 2.2955622006930291e+01 1.4002712395443229e+01 0 0 0
361 0 1 2.0000000000000000e+00 8.5956176589366322e+00 1.5586301154660770e+01 1.3913764304105394e+01 0 0 0
298 0 2 4.0000000000000000e+00 5.2277049024059687e+00 1.7071560679264895e+01 7.1345407350273078e+00 0 0 0
313 0 3 -2.0000000000000000e+00 4.1697719747153226e+00 1.7876435295671168e+01 8.1031708505474267e+00 0 0 0
396 0 4 1.0000000000000000e+00 1.0656404888041898e+01 1.7144897241771464e+01 1.4431735456367814e+01 0 0 0
292 0 1 2.0000000000000000e+00 4.8854122111523308e+00 1.5759391654893465e+01 9.9568839473548216e+00 0 0 0
379 0 3 -2.0000000000000000e+00 7.2852054341006207e+00 2.2032507403713009e+01 1.3642030139707110e+01 0 0 0
392 0 3 -2.0000000000000000e+00 1.1187620799431443e+01 1.6163158275270479e+01 1.3906429781378497e+01 0 0 0
312 0 3 -2.0000000000000000e+00 6.5279364035110934e+00 1.7274511680965926e+01 8.0192371599239305e+00 0 0 0
291 0 1 2.0000000000000000e+00 7.5264395145187146e+00 1.7513121001899819e+01 1.0244516173481898e+01 0 0 0
300 0 2 4.0000000000000000e+00 4.5871388012864971e+00 1.9091146463424813e+01 1.1680055423633538e+01 0 0 0
317 0 3 -2.0000000000000000e+00 5.2187901973151947e+00 1.7665812408908415e+01 1.1345536684563760e+01 0 0 0
368 0 2 4.0000000000000000e+00 6.4651838322069812e+00 2.0698286620859847e+01 1.3883915917113489e+01 0 0 0
374 0 3 -2.0000000000000000e+00 8.3885400149654714e+00 1.7544167991335591e+01 1.2468781019977895e+01 0 0 0
377 0 3 -2.0000000000000000e+00 7.5228476275221654e+00 1.9511742288128350e+01 1.4183825538863292e+01 0 0 0
378 0 3 -2.0000000000000000e+00 5.5006812028123129e+00 2.0117330270235410e+01 1.2637746871068122e+01 0 0 0
348 0 3 -2.0000000000000000e+00 7.3867129465502792e+00 2.1895788623179566e+01 1.0188004590629635e+01 0 0 0
349 0 3 -2.0000000000000000e+00 8.1775390035282403e+00 2.1671437732132606e+01 7.7088389292626252e+00 0 0 0
346 0 3 -2.0000000000000000e+00 8.1725456571489516e+00 1.9577209705800986e+01 9.2337430513733132e+00 0 0 0
367 0 2 4.0000000000000000e+00 8.8071990567141381e+00 1.8674161740080734e+01 1.3561280972876364e+01 0 0 0
334 0 2 4.0000000000000000e+00 8.4515193053744753e+00 2.1120027987011444e+01 9.3105972507073034e+00 0 0 0
347 0 3 -2.0000000000000000e+00 9.9413464879636706e+00 2.1599730611168354e+01 9.6813031660202622e+00 0 0 0
375 0 3 -2.0000000000000000e+00 9.7252470952783181e+00 1.9790933862137464e+01 1.2944246242698675e+01 0 0 0
397 0 1 2.0000000000000000e+00 1.1032004467247885e+01 2.1215315203241708e+01 1.1836650821957763e+01 0 0 0
294 0 1 2.0000000000000000e+00 4.9658949106984318e+00 2.2401040365505597e+01 9.2406926734115782e+00 0 0 0
314 0 3 -2.0000000000000000e+00 4.5976474134253387e+00 2.0348312855159030e+01 7.6607855159731875e+00 0 0 0
373 0 3 -2.0000000000000000e+00 9.4982224557240649e+00 1.7830509984253030e+01 1.4745802820457143e+01 0 0 0
315 0 3 -2.0000000000000000e+00 4.2880004504687159e+00 1.9703224123591390e+01 1.0160927312380769e+01 0 0 0
395 0 4 1.0000000000000000e+00 1.2113886275332016e+01 1.5873062762864118e+01 1.4798462563789633e+01 0 0 0
432 0 4 1.0000000000000000e+00 1.2137432475498649e+01 2.2253976343435291e+01 1.3890447253051091e+01 0 0 0
1801 1 5 0.0000000000000000e+00 1.5820983409109441e+01 1.8232018019749354e+01 7.5453832849482430e+00 0 0 0
1799 1 5 0.0000000000000000e+00 1.5148583056637790e+01 2.1401645487237449e+01 8.5643602931648246e+00 0 0 0
67 0 3 -2.0000000000000000e+00 1.4052339681616019e+01 1.6827504628165347e+01 7.5777378637279575e+00 0 0 0
69 0 4 1.0000000000000000e+00 1.4969389942656953e+01 1.7429885704435019e+01 7.1376175881938337e+00 0 0 0
1840 1 5 0.0000000000000000e+00 1.8094685604773286e+01 2.0042046297453588e+01 1.3617002755715836e+01 0 0 0
428 0 3 -2.0000000000000000e+00 1.2965440808045932e+01 2.1588202398525432e+01 1.3233933995955226e+01 0 0 0
1820 1 5 0.0000000000000000e+00 1.3530483184564812e+01 1.9217838584073910e+01 1.1978294913868153e+01 0 0 0
431 0 4 1.0000000000000000e+00 1.4086328970325315e+01 2.1245165316821140e+01 1.3252449947763148e+01 0 0 0
1821 1 5 0.0000000000000000e+00 1.6557944038942981e+01 1.9495711682394496e+01 1.0120280652596916e+01 0 0 0
1800 1 5 0.0000000000000000e+00 1.3263039505587257e+01 1.9326801856068389e+01 9.2376832648532670e+00 0 0 0
70 0 4 1.0000000000000000e+00 1.2846837985929414e+01 1.7282475959041921e+01 7.2847822686542907e+00 0 0 0
1843 1 5 0.0000000000000000e+00 1.8161532304971093e+01 1.6091043176980435e+01 1.4147641032338816e+01 0 0 0
1842 1 5 0.0000000000000000e+00 1.6415923287247324e+01 1.8026363057634786e+01 1.2476407278475165e+01 0 0 0
1822 1 5 0.0000000000000000e+00 1.5883080083148069e+01 1.6209299390366912e+01 1.0443014950101816e+01 0 0 0
1838 1 5 0.0000000000000000e+00 1.7649554948643853e+01 2.2547547383734422e+01 1.2148573414233725e+01 0 0 0
1841 1 5 0.0000000000000000e+00 1.3968567367875615e+01 1.6726969836787202e+01 1.3291284646543728e+01 0 0 0
1858 1 5 0.0000000000000000e+00 1.7013777218512256e+01 2.2593868645823736e+01 1.4912592373685269e+01 0 0 0
1819 1 5 0.0000000000000000e+00 1.4900886367785667e+01 2.1650369685803714e+01 1.1299672909404100e+01 0 0 0
1803 1 5 0.0000000000000000e+00 1.8326543553072618e+01 1.7570251956141053e+01 8.9470681249664281e+00 0 0 0
1823 1 5 0.0000000000000000e+00 1.8605223165336589e+01 1.6320215387516726e+01 1.1400483148307208e+01 0 0 0
102 0 3 -2.0000000000000000e+00 9.2219013392002065e+00 1.3324781849196404e+01 1.8114923538772768e+01 0 0 0
82 0 2 4.0000000000000000e+00 1.0036740900100261e+01 9.1531549161589272e+00 1.9606993431145614e+01 0 0 0
83 0 2 4.0000000000000000e+00 1.0178868510701742e+01 1.2195545680430770e+01 1.8846008999389809e+01 0 0 0
95 0 3 -2.0000000000000000e+00 1.1558585566661495e+01 8.7080756539345074e+00 1.9271418107855382e+01 0 0 0
96 0 3 -2.0000000000000000e+00 9.9464008155672232e+00 9.2254155724636000e+00 2.1234795681645977e+01 0 0 0
97 0 3 -2.0000000000000000e+00 9.7640638320429005e+00 1.0632156199797071e+01 1.8930660059630373e+01 0 0 0
98 0 3 -2.0000000000000000e+00 1.1547828648516465e+01 1.2261108177349543e+01 1.7991718641476890e+01 0 0 0
99 0 3 -2.0000000000000000e+00 1.0609672547314542e+01 1.2680740396953137e+01 2.0399007253544312e+01 0 0 0
84 0 2 4.0000000000000000e+00 1.1742625124097929e+01 1.3451956905877958e+01 2.1284720200050721e+01 0 0 0
81 0 2 4.0000000000000000e+00 9.3281802171303863e+00 1.4583500234019505e+01 1.7028819471393785e+01 0 0 0
100 0 3 -2.0000000000000000e+00 1.1838113367727052e+01 1.4822107066218289e+01 2.0515230688087751e+01 0 0 0
88 0 3 -2.0000000000000000e+00 9.9121287626392451e+00 1.3889291078481335e+01 1.5614897297277551e+01 0 0 0
918 0 3 -2.0000000000000000e+00 1.1477578471558596e+01 1.3708958789335387e+01 2.2920825212713741e+01 0 0 0
94 0 3 -2.0000000000000000e+00 9.1725410886634737e+00 8.0463386728149473e+00 1.8905076074364413e+01 0 0 0
76 0 1 2.0000000000000000e+00 1.2202058654294270e+01 9.0841758173160763e+00 2.2249717592427515e+01 0 0 0
105 0 4 1.0000000000000000e+00 1.2556605091802261e+01 8.7342690589253724e+00 1.8432083958085819e+01 0 0 0
75 0 1 2.0000000000000000e+00 1.2775007813324557e+01 1.0921313192969416e+01 1.6547198885618315e+01 0 0 0
101 0 3 -2.0000000000000000e+00 1.3147479526405496e+01 1.2657011739772594e+01 2.1184693155242364e+01 0 0 0
78 0 1 2.0000000000000000e+00 1.2742874403220430e+01 1.4590973158326850e+01 1.8054807594920227e+01 0 0 0
128 0 3 -2.0000000000000000e+00 1.4300766042897104e+01 1.2802329796436265e+01 1.5950170370713705e+01 0 0 0
136 0 3 -2.0000000000000000e+00 1.4565499006573338e+01 1.3400554345811104e+01 1.9121282818126058e+01 0 0 0
135 0 3 -2.0000000000000000e+00 1.5144750666013037e+01 1.1101425488583059e+01 1.9831649775949522e+01 0 0 0
120 0 2 4.0000000000000000e+00 1.4623881380182077e+01 1.2525224685425272e+01 2.0466861962824851e+01 0 0 0
106 0 4 1.0000000000000000e+00 1.4576304544666140e+01 8.9516134045879827e+00 1.8193094841656190e+01 0 0 0
138 0 3 -2.0000000000000000e+00 1.6122002664343057e+01 9.0388424016940014e+00 1.8533280581970452e+01 0 0 0
133 0 3 -2.0000000000000000e+00 1.6500399912076787e+01 9.5143720105475023e+00 2.1350180282708550e+01 0 0 0
143 0 4 1.0000000000000000e+00 1.6298665209776715e+01 9.6166693314371248e+00 1.7057087277948813e+01 0 0 0
119 0 2 4.0000000000000000e+00 1.6390662470754421e+01 1.0061081559870347e+01 1.9789047248333468e+01 0 0 0
137 0 3 -2.0000000000000000e+00 1.5702757380737431e+01 1.2823664020106582e+01 2.1651756373343702e+01 0 0 0
134 0 3 -2.0000000000000000e+00 1.7630167032290490e+01 1.1007037675750555e+01 1.9450006603259460e+01 0 0 0
114 0 1 2.0000000000000000e+00 1.5935944678946628e+01 1.2377339919420242e+01 1.7426832974141540e+01 0 0 0
139 0 3 -2.0000000000000000e+00 1.9793137686421762e+01 1.1963905740934011e+01 2.0652567937797425e+01 0 0 0
142 0 4 1.0000000000000000e+00 1.8920104899448706e+01 1.1491494923937447e+01 1.9817499819662906e+01 0 0 0
140 0 3 -2.0000000000000000e+00 1.5883938806372122e+01 1.0313312509362227e+01 1.6168934546314325e+01 0 0 0
129 0 3 -2.0000000000000000e+00 1.3048187272737716e+01 1.5033793182287660e+01 1.5535564219395340e+01 0 0 0
103 0 3 -2.0000000000000000e+00 1.3583287399419625e+01 8.9482635666755730e+00 1.7556770082845187e+01 0 0 0
113 0 1 2.0000000000000000e+00 1.4483703014753740e+01 8.4950488936115729e+00 1.5354438280195451e+01 0 0 0
1904 1 5 0.0000000000000000e+00 1.9575647432763404e+01 1.5091008898812312e+01 2.0915222259848214e+01 0 0 0
111 0 1 2.0000000000000000e+00 1.7919326713803983e+01 1.2017015211201009e+01 2.2286985332346894e+01 0 0 0
1864 1 5 0.0000000000000000e+00 1.9900785355489045e+01 1.5093557120513710e+01 1.6284541092660969e+01 0 0 0
1902 1 5 0.0000000000000000e+00 1.6328340477282282e+01 1.5330435154697110e+01 1.9446720168419741e+01 0 0 0
132 0 3 -2.0000000000000000e+00 1.4303311285489150e+01 9.9260409011300421e+00 2.2647899188554394e+01 0 0 0
118 0 2 4.0000000000000000e+00 1.5778365486715368e+01 9.5120374593951365e+00 2.2870469485007689e+01 0 0 0
1863 1 5 0.0000000000000000e+00 1.6818265783064568e+01 1.5339121818596610e+01 1.6602812428673616e+01 0 0 0
93 0 3 -2.0000000000000000e+00 8.1824742521998690e+00 1.5457080083408323e+01 1.6451669394564021e+01 0 0 0
92 0 3 -2.0000000000000000e+00 1.0363236042930202e+01 1.5562294238797822e+01 1.7798281371675049e+01 0 0 0
370 0 2 4.0000000000000000e+00 7.8349085847777777e+00 1.8992182477835719e+01 2.0713814853854657e+01 0 0 0
371 0 2 4.0000000000000000e+00 6.8752291015807518e+00 2.1265156314199888e+01 1.8696404909906786e+01 0 0 0
384 0 3 -2.0000000000000000e+00 6.7931231678689841e+00 1.8132991729144909e+01 2.1538400936874591e+01 0 0 0
385 0 3 -2.0000000000000000e+00 7.0280251372511859e+00 1.9968202318212207e+01 1.9645496027149871e+01 0 0 0
390 0 3 -2.0000000000000000e+00 5.4668903186037898e+00 2.1383059772469558e+01 1.7871141099347206e+01 0 0 0
1154 0 1 2.0000000000000000e+00 4.8776168573414980e+00 1.8279616329028340e+01 2.2530611929645957e+01 0 0 0
386 0 3 -2.0000000000000000e+00 8.0546362813354317e+00 2.1124207266952965e+01 1.7602312634510618e+01 0 0 0
382 0 3 -2.0000000000000000e+00 8.8345767864495457e+00 1.8099290199499542e+01 1.9783471455636768e+01 0 0 0
364 0 1 2.0000000000000000e+00 1.0154226653037952e+01 1.6291966376930340e+01 2.0115626832454264e+01 0 0 0
365 0 1 2.0000000000000000e+00 9.0631876586987357e+00 1.7954157468987493e+01 1.7132979394385664e+01 0 0 0
383 0 3 -2.0000000000000000e+00 8.5462663295661496e+00 1.9970004514115345e+01 2.1802944898270091e+01 0 0 0
391 0 3 -2.0000000000000000e+00 1.0225868118231885e+01 2.0136539723136099e+01 1.6991477022309450e+01 0 0 0
393 0 4 1.0000000000000000e+00 1.1368895682323132e+01 2.0355852899893218e+01 1.7326173659924795e+01 0 0 0
394 0 4 1.0000000000000000e+00 9.1878873380811470e+00 2.0650959738463900e+01 1.7562723040254642e+01 0 0 0
418 0 3 -2.0000000000000000e+00 1.1347986314497318e+01 2.2499528843827271e+01 2.1482993670998521e+01 0 0 0
369 0 2 4.0000000000000000e+00 4.8582852531602772e+00 2.1938976092692531e+01 1.6413901404611508e+01 0 0 0
387 0 3 -2.0000000000000000e+00 6.9756701250400956e+00 2.2585282948904727e+01 1.9697720951515624e+01 0 0 0
1171 0 3 -2.0000000000000000e+00 4.3564749906956344e+00 2.0734602306527588e+01 2.2366994001767992e+01 0 0 0
401 0 1 2.0000000000000000e+00 9.3022787929428912e+00 2.1810630850117654e+01 1.5305885292712109e+01 0 0 0
376 0 3 -2.0000000000000000e+00 5.4774157938142558e+00 2.1079920626178296e+01 1.5128903893523745e+01 0 0 0
400 0 1 2.0000000000000000e+00 9.9761555472830601e+00 2.1242587895908226e+01 2.2996321704005361e+01 0 0 0
544 0 1 2.0000000000000000e+00 4.0171802859806531e+00 2.2737158050654358e+01 2.0692340803506767e+01 1 0 0
1879 1 5 0.0000000000000000e+00 1.2388871411280553e+01 2.0643041004717027e+01 1.8250511040379983e+01 0 0 0
1900 1 5 0.0000000000000000e+00 1.3401072026567892e+01 1.9836304167859169e+01 2.0693255891807389e+01 0 0 0
1881 1 5 0.0000000000000000e+00 1.3830765245607536e+01 1.7914009234690930e+01 1.7691764513397025e+01 0 0 0
1859 1 5 0.0000000000000000e+00 1.4171540188302828e+01 2.1815372436621548e+01 1.6471963010233107e+01 0 0 0
1898 1 5 0.0000000000000000e+00 1.4255926675127832e+01 2.2497340896096077e+01 1.9894043205658026e+01 0 0 0
1883 1 5 0.0000000000000000e+00 1.8872056550332147e+01 1.6124563881594892e+01 1.8520696265705553e+01 0 0 0
1922 1 5 0.0000000000000000e+00 1.5743332623987120e+01 1.6239169550447183e+01 2.2196894880110648e+01 0 0 0
1901 1 5 0.0000000000000000e+00 1.5329506195319961e+01 1.7866682040036785e+01 2.0070842554554755e+01 0 0 0
1903 1 5 0.0000000000000000e+00 1.8344427517360735e+01 1.7935136374902235e+01 2.0497032631957548e+01 0 0 0
1882 1 5 0.0000000000000000e+00 1.7108968703340235e+01 1.8107669102248195e+01 1.7880493981135828e+01 0 0 0
1860 1 5 0.0000000000000000e+00 1.6707934389241593e+01 2.0269662989298279e+01 1.6253228432954398e+01 0 0 0
1878 1 5 0.0000000000000000e+00 1.6578283787511459e+01 2.2709544823356627e+01 1.7989733230885960e+01 0 0 0
1880 1 5 0.0000000000000000e+00 1.5336699812122340e+01 2.0238624463229584e+01 1.8655113281675465e+01 0 0 0
1899 1 5 0.0000000000000000e+00 1.7153802135370853e+01 2.1455799490321350e+01 2.0515454068693980e+01 0 0 0
1921 1 5 0.0000000000000000e+00 1.6670882953405982e+01 1.9195253797196020e+01 2.2138327134589389e+01 0 0 0
1862 1 5 0.0000000000000000e+00 1.6017065101324917e+01 1.7754119619147186e+01 1.5223591093209368e+01 0 0 0
866 0 1 2.0000000000000000e+00 8.9551507970533635e+00 1.0228852114487509e+01 2.3138693998361088e+01 0 0 0
901 0 1 2.0000000000000000e+00 9.3720453427734984e+00 8.6382612278142137e+00 2.7086747932199035e+01 0 0 0
883 0 3 -2.0000000000000000e+00 7.5877584637889370e+00 1.1978889488956076e+01 2.3359835961092070e+01 0 0 0
879 0 3 -2.0000000000000000e+00 7.6952303480876054e+00 9.2897724192701379e+00 2.5279983066867256e+01 0 0 0
882 0 3 -2.0000000000000000e+00 5.8631724348908412e+00 1.3807822662814626e+01 2.4458946764898915e+01 0 0 0
871 0 2 4.0000000000000000e+00 6.5024016004377767e+00 9.9308572408942037e+00 2.6154009951675008e+01 0 0 0
872 0 2 4.0000000000000000e+00 6.7617955667315446e+00 1.2560517403855689e+01 2.4616084562244076e+01 0 0 0
881 0 3 -2.0000000000000000e+00 6.0615162844355384e+00 1.1292534492677508e+01 2.5375511299006643e+01 0 0 0
870 0 1 2.0000000000000000e+00 8.0490084235758168e+00 1.1412110318787702e+01 2.9389293560850305e+01 0 0 0
880 0 3 -2.0000000000000000e+00 7.9932747405256661e+00 1.2966205318791959e+01 2.5765164445219835e+01 0 0 0
884 0 3 -2.0000000000000000e+00 9.4498668888020632e+00 1.2648451352993270e+01 2.8060655086381633e+01 0 0 0
873 0 2 4.0000000000000000e+00 9.2683551988415971e+00 1.3357518083138999e+01 2.6631044870966875e+01 0 0 0
885 0 3 -2.0000000000000000e+00 9.4229527604488350e+00 1.4988142272054398e+01 2.6755157854743818e+01 0 0 0