LAMMPS data file via write_data, version 12 Dec 2018, timestep = 500000

1728 atoms
4 atom types

4.7539303742291308e+00 2.9246069625771248e+01 xlo xhi
7.9687336279528607e+00 3.8031266372047412e+01 ylo yhi
2.3614550201315039e+00 4.3638544979867454e+01 zlo zhi

Masses

1 40.08
2 28.09
3 16
4 1

Atoms # full

17 0 3 -2.0000000000000000e+00 7.0665069465115549e+00 1.0126118872999649e+01 3.7294314080637374e+00 0 0 0
7 0 2 4.0000000000000000e+00 7.7724195989051452e+00 8.6382742485367512e+00 3.5358756473787438e+00 0 0 0
13 0 3 -2.0000000000000000e+00 8.5324584113727742e+00 8.2835520378797334e+00 4.9754363299535420e+00 0 0 0
36 0 4 1.0000000000000000e+00 1.0102547878391700e+01 9.5498082906093913e+00 2.5362859953059149e+00 0 0 0
15 0 3 -2.0000000000000000e+00 8.9572651852030898e+00 8.7574771135528415e+00 2.4833270287245490e+00 0 0 0
32 0 3 -2.0000000000000000e+00 1.1040332755227931e+01 1.0301224376012240e+01 3.1266323482719920e+00 0 0 0
35 0 4 1.0000000000000000e+00 1.1224480482605809e+01 9.9608470716930047e+00 4.3574105630508901e+00 0 0 0
68 0 3 -2.0000000000000000e+00 1.5095519088108736e+01 1.0336267993687784e+01 3.2079372562760633e+00 0 0 0
71 0 4 1.0000000000000000e+00 1.6015309938549848e+01 9.8540447367568209e+00 2.5648099965897204e+00 0 0 0
72 0 4 1.0000000000000000e+00 1.5200551813399368e+01 1.0850060857424721e+01 4.3693349451675818e+00 0 0 0
8 0 2 4.0000000000000000e+00 6.2863635618324238e+00 1.1312722314903871e+01 2.9214465197633239e+00 0 0 0
16 0 3 -2.0000000000000000e+00 5.3692692878916191e+00 1.2147875243815271e+01 3.9612784095947200e+00 0 0 0
2 0 1 2.0000000000000000e+00 1.0698459359821401e+01 1.2662259294830548e+01 3.5240950279074528e+00 0 0 0
38 0 1 2.0000000000000000e+00 1.5723843207119845e+01 1.2656716648765116e+01 2.5430197892566677e+00 0 0 0
51 0 3 -2.0000000000000000e+00 1.5064881512184977e+01 1.2010043075192364e+01 4.9987448843692217e+00 0 0 0
44 0 2 4.0000000000000000e+00 1.3080608510480213e+01 1.5342790865009588e+01 3.1553111879643367e+00 0 0 0
52 0 3 -2.0000000000000000e+00 1.2584674217943975e+01 1.6544395729053445e+01 4.2207102949437960e+00 0 0 0
53 0 3 -2.0000000000000000e+00 1.3930709990427129e+01 1.4183222793297332e+01 3.9187200130196165e+00 0 0 0
54 0 3 -2.0000000000000000e+00 1.1717565955816850e+01 1.4753903965694567e+01 2.5760303285666688e+00 0 0 0
301 0 3 -2.0000000000000000e+00 6.1784397119506842e+00 1.7445627665587423e+01 3.3811570796704382e+00 0 0 0
295 0 2 4.0000000000000000e+00 6.6644640610947015e+00 1.8654276728261028e+01 2.4843961620871640e+00 0 0 0
305 0 3 -2.0000000000000000e+00 5.7112355768294982e+00 1.9945167573131442e+01 2.7754729833953329e+00 0 0 0
303 0 3 -2.0000000000000000e+00 8.2466315478392076e+00 1.8855755179907781e+01 2.8603362001419725e+00 0 0 0
323 0 4 1.0000000000000000e+00 1.0629795920762616e+01 1.9105260114919147e+01 4.6446291188927029e+00 0 0 0
1228 0 1 2.0000000000000000e+00 1.2607783018457956e+01 1.8665535338335712e+01 2.6338365550327185e+00 0 0 1
296 0 2 4.0000000000000000e+00 4.8861331318630583e+00 2.1301606723986307e+01 2.3865310317043722e+00 0 0 0
290 0 1 2.0000000000000000e+00 9.1615969625326485e+00 2.1232465977734940e+01 4.1264853918696920e+00 0 0 0
320 0 3 -2.0000000000000000e+00 1.1398476553069145e+01 2.0079325001959685e+01 4.2760967755417862e+00 0 0 0
360 0 4 1.0000000000000000e+00 1.2611866448494936e+01 2.0661195872475052e+01 3.9403771852964686e+00 0 0 0
356 0 3 -2.0000000000000000e+00 1.3790652581530498e+01 2.0604116590289223e+01 3.2812705356082934e+00 0 0 0
359 0 4 1.0000000000000000e+00 1.5005068272153890e+01 2.0304397723857544e+01 2.9293506845358119e+00 0 0 0
450 0 3 -2.0000000000000000e+00 1.6332547721168556e+01 2.0260006238928082e+01 2.4349125135462382e+00 0 0 0
326 0 1 2.0000000000000000e+00 1.4482119176677624e+01 2.2869943785269623e+01 3.4372766845022795e+00 0 0 0
5 0 1 2.0000000000000000e+00 6.7797580922286569e+00 1.0173957624785551e+01 6.7011138783063124e+00 0 0 0
633 0 3 -2.0000000000000000e+00 1.0884216711874883e+01 9.3250599008600474e+00 5.6244607856438202e+00 0 1 0
31 0 3 -2.0000000000000000e+00 8.5494964236543556e+00 1.1578134838164400e+01 7.2326657366874603e+00 0 0 0
34 0 4 1.0000000000000000e+00 8.8002038896867187e+00 1.2475892001982654e+01 6.4322322102816560e+00 0 0 0
66 0 3 -2.0000000000000000e+00 9.6479370009956309e+00 1.3446313778979455e+01 6.0649380873446184e+00 0 0 0
50 0 3 -2.0000000000000000e+00 1.2457517169408234e+01 1.2476761908441430e+01 5.2018252622273708e+00 0 0 0
41 0 1 2.0000000000000000e+00 1.1466131333011861e+01 1.1148219466438524e+01 6.8802237376229964e+00 0 0 0
43 0 2 4.0000000000000000e+00 1.3965394971895345e+01 1.3144343335519897e+01 5.2051117468057413e+00 0 0 0
49 0 3 -2.0000000000000000e+00 1.4429619511650513e+01 1.3963255076043945e+01 6.4724094933716314e+00 0 0 0
47 0 2 4.0000000000000000e+00 1.0393610211792758e+01 1.4451042379197318e+01 7.0546972303562043e+00 0 0 0
62 0 3 -2.0000000000000000e+00 1.1216388444984384e+01 1.5605490818850086e+01 6.2412474800167432e+00 0 0 0
45 0 2 4.0000000000000000e+00 1.1756531538484332e+01 1.6977548502013061e+01 5.5866797111437574e+00 0 0 0
42 0 1 2.0000000000000000e+00 1.4601747410493441e+01 1.5786273924234568e+01 7.8469471916704707e+00 0 0 0
310 0 3 -2.0000000000000000e+00 5.6984343483327367e+00 1.7390854979706710e+01 6.8543273479280176e+00 0 0 0
293 0 1 2.0000000000000000e+00 7.6660289955882890e+00 1.7845494443528189e+01 5.4122841010089910e+00 0 0 0
322 0 4 1.0000000000000000e+00 7.7006267939851023e+00 1.9967368252531067e+01 6.9670978916271320e+00 0 0 0
57 0 3 -2.0000000000000000e+00 1.0480098740385467e+01 1.7890700079746967e+01 5.1680446957656683e+00 0 0 0
56 0 3 -2.0000000000000000e+00 1.2743598051980952e+01 1.7819254694752164e+01 6.5666750617265723e+00 0 0 0
308 0 3 -2.0000000000000000e+00 6.2354808399500667e+00 2.2281233053358832e+01 5.3574971426854230e+00 0 0 0
321 0 4 1.0000000000000000e+00 6.7950118429957627e+00 2.1066773911648916e+01 5.4598984667728745e+00 0 0 0
319 0 3 -2.0000000000000000e+00 7.7554853874787613e+00 2.0299845577337656e+01 5.7782782915049280e+00 0 0 0
294 0 1 2.0000000000000000e+00 8.1390140754619633e+00 2.2935211757835329e+01 6.8223921232670461e+00 0 0 0
329 0 1 2.0000000000000000e+00 1.2155238890885775e+01 2.0377538346824000e+01 6.7522147091676876e+00 0 0 0
337 0 3 -2.0000000000000000e+00 1.2644097604742784e+01 2.2573935932192818e+01 5.7878454146400369e+00 0 0 0
26 0 3 -2.0000000000000000e+00 4.8517839387247035e+00 1.0710307237858283e+01 8.1907235556894058e+00 0 0 0
22 0 3 -2.0000000000000000e+00 7.5856043278191470e+00 8.6003763852032247e+00 8.6421526555710866e+00 0 0 0
10 0 2 4.0000000000000000e+00 7.6068696672144211e+00 9.4420003257387322e+00 9.9760131642943595e+00 0 0 0
25 0 3 -2.0000000000000000e+00 5.9463560233665111e+00 9.5634995091005415e+00 1.0303280407827547e+01 0 0 0
23 0 3 -2.0000000000000000e+00 8.2301203617799406e+00 1.0901785933659699e+01 9.6507429568028922e+00 0 0 0
33 0 4 1.0000000000000000e+00 8.4966529547347296e+00 1.1412243951340448e+01 8.4135664353792521e+00 0 0 0
61 0 3 -2.0000000000000000e+00 1.1457084455426775e+01 1.3678347556841011e+01 8.0696604544108936e+00 0 0 0
46 0 2 4.0000000000000000e+00 1.2578379223215812e+01 1.3146428224062268e+01 9.1854742152534907e+00 0 0 0
58 0 3 -2.0000000000000000e+00 1.3231971451412218e+01 1.1851661059890274e+01 8.5136840388643744e+00 0 0 0
60 0 3 -2.0000000000000000e+00 1.1745864957377586e+01 1.2801796184401546e+01 1.0503173945567999e+01 0 0 0
40 0 1 2.0000000000000000e+00 1.5620135688404822e+01 1.2320507172326419e+01 7.8686456579621140e+00 0 0 0
64 0 3 -2.0000000000000000e+00 8.0076924540596437e+00 1.6880286317638951e+01 9.6937082591153469e+00 0 0 0
63 0 3 -2.0000000000000000e+00 9.3909118422044191e+00 1.5184003175369538e+01 8.1078840639996059e+00 0 0 0
48 0 2 4.0000000000000000e+00 9.3851973409580154e+00 1.6142439954626283e+01 9.4024500691353055e+00 0 0 0
59 0 3 -2.0000000000000000e+00 1.3803201507231865e+01 1.4183326424087451e+01 9.4562414640415238e+00 0 0 0
454 0 3 -2.0000000000000000e+00 1.6750861469981356e+01 1.6786720273712625e+01 8.3462148164610728e+00 0 0 0
311 0 3 -2.0000000000000000e+00 7.0135359486517928e+00 1.9309656293835989e+01 7.9041143137062697e+00 0 0 0
298 0 2 4.0000000000000000e+00 5.5189932510723336e+00 1.8555776827593682e+01 7.9172072403914058e+00 0 0 0
312 0 3 -2.0000000000000000e+00 5.1145117066513697e+00 1.8016457628631947e+01 9.3500788188742234e+00 0 0 0
65 0 3 -2.0000000000000000e+00 1.0508994138850703e+01 1.7283036541551624e+01 9.1711221082253847e+00 0 0 0
292 0 1 2.0000000000000000e+00 8.7923368336392524e+00 1.9109331499078362e+01 9.4405480326951263e+00 0 0 0
69 0 4 1.0000000000000000e+00 1.3163618959634142e+01 1.7884017090721354e+01 7.9001862360587811e+00 0 0 0
70 0 4 1.0000000000000000e+00 1.1963865540911225e+01 1.7262688164424855e+01 9.2909954333932046e+00 0 0 0
67 0 3 -2.0000000000000000e+00 1.3216958974726580e+01 1.7287562749138576e+01 9.0136605703016546e+00 0 0 0
457 0 3 -2.0000000000000000e+00 1.5960475411256763e+01 1.9213432519097434e+01 9.1412903081326444e+00 0 0 0
335 0 2 4.0000000000000000e+00 7.0118765902791766e+00 2.2831702103952278e+01 9.8450606666967069e+00 0 0 0
354 0 3 -2.0000000000000000e+00 5.6149417338120786e+00 2.1998785908443047e+01 1.0126142256229398e+01 0 0 0
346 0 3 -2.0000000000000000e+00 1.0260807452195833e+01 2.0998910774415595e+01 8.0621783823815054e+00 0 0 0
349 0 3 -2.0000000000000000e+00 8.4469853636870145e+00 2.1995587984616066e+01 9.5246993630331076e+00 0 0 0
334 0 2 4.0000000000000000e+00 1.0131793915207970e+01 2.1682555485735410e+01 9.4731969837490979e+00 0 0 0
348 0 3 -2.0000000000000000e+00 1.0544575530711896e+01 2.0593079186726118e+01 1.0542753710996726e+01 0 0 0
347 0 3 -2.0000000000000000e+00 1.1116819368682199e+01 2.2967315841665283e+01 9.5353818331141529e+00 0 0 0
458 0 3 -2.0000000000000000e+00 1.6779413540156529e+01 2.1453296237401190e+01 8.2117506158866256e+00 0 0 0
443 0 2 4.0000000000000000e+00 1.5648918440864549e+01 2.0795088044390624e+01 9.1811742674947752e+00 0 0 0
462 0 3 -2.0000000000000000e+00 1.4102815916899464e+01 2.1264092169162836e+01 8.8291022270895443e+00 0 0 0
24 0 3 -2.0000000000000000e+00 8.2120721294523982e+00 8.9048317070722440e+00 1.1316405138277300e+01 0 0 0
73 0 1 2.0000000000000000e+00 9.6767177983550603e+00 9.4593336211832231e+00 1.3121067184094647e+01 0 0 0
705 0 3 -2.0000000000000000e+00 1.2307862681774598e+01 9.6630154159811283e+00 1.3274497564169732e+01 0 1 0
12 0 2 4.0000000000000000e+00 4.9820325286826010e+00 1.3166809990392535e+01 1.1359661894052142e+01 0 0 0
29 0 3 -2.0000000000000000e+00 6.5238995146924452e+00 1.3360804822827451e+01 1.1862115137803421e+01 0 0 0
3 0 1 2.0000000000000000e+00 9.1521062785348111e+00 1.2706029161264507e+01 1.0918880064980934e+01 0 0 0
86 0 3 -2.0000000000000000e+00 1.0034864940580340e+01 1.1994751256461038e+01 1.2996871015277762e+01 0 0 0
74 0 1 2.0000000000000000e+00 1.2576288498977252e+01 1.1875695273853294e+01 1.2421489680392437e+01 0 0 0
254 0 1 2.0000000000000000e+00 6.0309531708248736e+00 1.6357983231663034e+01 1.0840433519181573e+01 1 0 0
93 0 3 -2.0000000000000000e+00 7.1649811582560590e+00 1.6442313079918680e+01 1.2872193219272635e+01 0 0 0
90 0 3 -2.0000000000000000e+00 9.8071344056385126e+00 1.5316255514990333e+01 1.0770246584913844e+01 0 0 0
80 0 2 4.0000000000000000e+00 1.0541446992960388e+01 1.5779711884356445e+01 1.2174467462161598e+01 0 0 0
89 0 3 -2.0000000000000000e+00 1.0411283653553523e+01 1.4571863372511475e+01 1.3264822716460973e+01 0 0 0
91 0 3 -2.0000000000000000e+00 1.2045131572813045e+01 1.6368980563665669e+01 1.1944364266692517e+01 0 0 0
39 0 1 2.0000000000000000e+00 1.4411130581487006e+01 1.6234325156643536e+01 1.1060544815265747e+01 0 0 0
126 0 3 -2.0000000000000000e+00 1.5658036922019326e+01 1.5541625517232450e+01 1.3091170462823342e+01 0 0 0
88 0 3 -2.0000000000000000e+00 9.6187160098915498e+00 1.7101840248635266e+01 1.2644677120793016e+01 0 0 0
362 0 1 2.0000000000000000e+00 1.1811932540363030e+01 1.8868842775070302e+01 1.2315569410566795e+01 0 0 0
456 0 3 -2.0000000000000000e+00 1.6698666817715164e+01 1.7375108458002305e+01 1.0830581207696826e+01 0 0 0
327 0 1 2.0000000000000000e+00 1.3061912779567230e+01 2.2192387171503860e+01 1.1274771823991982e+01 0 0 0
410 0 3 -2.0000000000000000e+00 1.2715913614956483e+01 2.0785608016155901e+01 1.3278759420772873e+01 0 0 0
459 0 3 -2.0000000000000000e+00 1.6054243296992283e+01 2.1410770553444713e+01 1.0668357597907928e+01 0 0 0
444 0 2 4.0000000000000000e+00 1.6750649836537914e+01 2.2595796088128285e+01 1.1553769270499288e+01 0 0 0
693 0 2 4.0000000000000000e+00 1.3792007135934339e+01 9.2151403748642107e+00 1.3760734633050308e+01 0 1 0
704 0 3 -2.0000000000000000e+00 1.3814028543731039e+01 8.9792566182944835e+00 1.5358915186598548e+01 0 1 0
122 0 3 -2.0000000000000000e+00 1.4752922811727004e+01 1.0579578210662097e+01 1.3547625433211833e+01 0 0 0
265 0 3 -2.0000000000000000e+00 4.8145207518526965e+00 1.3416461405032107e+01 1.5008218905716664e+01 1 0 0
288 0 4 1.0000000000000000e+00 5.1901548434390810e+00 1.2607372946266141e+01 1.6065770027689425e+01 1 0 0
79 0 2 4.0000000000000000e+00 1.0233827682889901e+01 1.3114018357939312e+01 1.4131362309133120e+01 0 0 0
85 0 3 -2.0000000000000000e+00 8.9129224138464380e+00 1.3209717398184416e+01 1.5023029648391862e+01 0 0 0
87 0 3 -2.0000000000000000e+00 1.1618969461469041e+01 1.2789898062134920e+01 1.4874828883309934e+01 0 0 0
121 0 3 -2.0000000000000000e+00 1.5707278647207987e+01 1.1493731587016612e+01 1.5718169385212606e+01 0 0 0
125 0 3 -2.0000000000000000e+00 1.4956604818536997e+01 1.3138664115364978e+01 1.3952486985488562e+01 0 0 0
115 0 2 4.0000000000000000e+00 1.5815295379057458e+01 1.1706552956517788e+01 1.4165132827497640e+01 0 0 0
271 0 3 -2.0000000000000000e+00 5.1411242358643996e+00 1.6445877834367035e+01 1.4876048845338811e+01 1 0 0
253 0 1 2.0000000000000000e+00 6.9638174904143026e+00 1.4517051079258513e+01 1.4252896128965869e+01 1 0 0
285 0 4 1.0000000000000000e+00 8.2109771218057475e+00 1.6216114870295520e+01 1.5915906065852850e+01 1 0 0
117 0 2 4.0000000000000000e+00 1.2427222043107163e+01 1.6355053883467210e+01 1.5274282691313307e+01 0 0 0
124 0 3 -2.0000000000000000e+00 1.3517465843735135e+01 1.5430813788660092e+01 1.4580978773235747e+01 0 0 0
127 0 3 -2.0000000000000000e+00 1.5857330892626944e+01 1.4896378919458687e+01 1.5652164192741003e+01 0 0 0
116 0 2 4.0000000000000000e+00 1.5047377969890256e+01 1.4738986984983192e+01 1.4285234208791856e+01 0 0 0
286 0 4 1.0000000000000000e+00 5.7852630322777481e+00 1.6990883831316175e+01 1.5936283558113850e+01 1 0 0
374 0 3 -2.0000000000000000e+00 5.0806373102594415e+00 1.9756031088953598e+01 1.4437101374425025e+01 0 0 0
375 0 3 -2.0000000000000000e+00 7.6314274730718070e+00 1.9018488974279872e+01 1.3499838367801244e+01 0 0 0
373 0 3 -2.0000000000000000e+00 7.3451449416741710e+00 1.9831403468610745e+01 1.5865179227000045e+01 0 0 0
81 0 2 4.0000000000000000e+00 8.2108017682908709e+00 1.7464033793294487e+01 1.3480354950899473e+01 0 0 0
92 0 3 -2.0000000000000000e+00 8.5932520536602048e+00 1.7098313659419791e+01 1.4998495531948992e+01 0 0 0
361 0 1 2.0000000000000000e+00 1.0087113279028062e+01 1.8831348339934095e+01 1.5995371729861720e+01 0 0 0
129 0 3 -2.0000000000000000e+00 1.1829560897663576e+01 1.7604552687895353e+01 1.4689874843247392e+01 0 0 0
377 0 3 -2.0000000000000000e+00 6.9166642385463142e+00 2.1707849546547600e+01 1.4267492712051421e+01 0 0 0
367 0 2 4.0000000000000000e+00 6.7313818910456371e+00 2.0087516382831190e+01 1.4442505603503466e+01 0 0 0
413 0 3 -2.0000000000000000e+00 1.2442956240585545e+01 2.2692092248684471e+01 1.5003496230707849e+01 0 0 0
403 0 2 4.0000000000000000e+00 1.2945609578459113e+01 2.1167759897194877e+01 1.4810539016734765e+01 0 0 0
409 0 3 -2.0000000000000000e+00 1.2185822805173880e+01 2.0223451443418046e+01 1.5886930286362606e+01 0 0 0
411 0 3 -2.0000000000000000e+00 1.4561131704327291e+01 2.1165743191824280e+01 1.5168539861135235e+01 0 0 0
108 0 4 1.0000000000000000e+00 8.8921777007573652e+00 8.4266636000107606e+00 1.7826081385129466e+01 0 0 0
712 0 3 -2.0000000000000000e+00 1.3635629847283614e+01 9.8776126557134045e+00 1.7779691795414280e+01 0 1 0
696 0 2 4.0000000000000000e+00 1.3988853806319621e+01 8.6004770551028908e+00 1.6943375514625444e+01 0 1 0
287 0 4 1.0000000000000000e+00 5.3534489084023011e+00 1.1617248451906148e+01 1.8109679085780087e+01 1 0 0
284 0 3 -2.0000000000000000e+00 5.5066330153972594e+00 1.2485088244152742e+01 1.7212089676483650e+01 1 0 0
77 0 1 2.0000000000000000e+00 7.9584023151334780e+00 1.3111465941888113e+01 1.7108445686357360e+01 0 0 0
134 0 3 -2.0000000000000000e+00 1.3660027587516749e+01 1.3317772686813376e+01 1.8019702491621107e+01 0 0 0
113 0 1 2.0000000000000000e+00 1.3248302093909146e+01 1.1791299379708825e+01 1.6363363592207360e+01 0 0 0
144 0 4 1.0000000000000000e+00 1.6562132003233241e+01 1.1291136415051303e+01 1.6812645859620236e+01 0 0 0
114 0 1 2.0000000000000000e+00 1.6118955892105973e+01 1.3730990388081951e+01 1.7557080228116565e+01 0 0 0
258 0 1 2.0000000000000000e+00 5.2375726010081127e+00 1.4924027605734393e+01 1.7454578336776933e+01 1 0 0
283 0 3 -2.0000000000000000e+00 7.5833186074009058e+00 1.5330331415458643e+01 1.6540613062016323e+01 1 0 0
364 0 1 2.0000000000000000e+00 7.9186108829475303e+00 1.6565168246193057e+01 1.8519279436417371e+01 0 0 0
128 0 3 -2.0000000000000000e+00 1.2333121663066196e+01 1.6350738350480462e+01 1.6843652279646452e+01 0 0 0
120 0 2 4.0000000000000000e+00 1.2023593508734125e+01 1.6556777395989805e+01 1.8447679744994911e+01 0 0 0
281 0 3 -2.0000000000000000e+00 5.6672775009120793e+00 1.7627234261171758e+01 1.7179437920323359e+01 1 0 0
396 0 4 1.0000000000000000e+00 7.5522097193538382e+00 1.8833697955750896e+01 1.6830720412435259e+01 0 0 0
392 0 3 -2.0000000000000000e+00 8.5243903594189661e+00 1.8702454216074301e+01 1.7708877598751194e+01 0 0 0
395 0 4 1.0000000000000000e+00 9.6235450772009195e+00 1.8448104979721837e+01 1.8550609958184044e+01 0 0 0
136 0 3 -2.0000000000000000e+00 1.0667803822908473e+01 1.7401324644136821e+01 1.8433432706172916e+01 0 0 0
432 0 4 1.0000000000000000e+00 1.2850387207305159e+01 1.9478443831155460e+01 1.6730576861113832e+01 0 0 0
431 0 4 1.0000000000000000e+00 1.3798137950511185e+01 1.8447071761823924e+01 1.8451180308687803e+01 0 0 0
428 0 3 -2.0000000000000000e+00 1.3756105652751922e+01 1.9377875180894673e+01 1.7616816945893937e+01 0 0 0
397 0 1 2.0000000000000000e+00 1.5834386506691347e+01 1.9770610503640548e+01 1.6555776100056796e+01 0 0 0
280 0 3 -2.0000000000000000e+00 5.3227197727477806e+00 2.0073443304897008e+01 1.8288430701513288e+01 1 0 0
365 0 1 2.0000000000000000e+00 7.6180953388975796e+00 2.0988139172860070e+01 1.7984304580711015e+01 0 0 0
391 0 3 -2.0000000000000000e+00 1.0154859023289559e+01 2.1413787717012323e+01 1.8848042332362127e+01 0 0 0
401 0 1 2.0000000000000000e+00 1.2468808833227921e+01 2.1447501282827830e+01 1.8342571459043938e+01 0 0 0
97 0 3 -2.0000000000000000e+00 8.1134622539240340e+00 9.8939352574541406e+00 2.0377262058625004e+01 0 0 0
82 0 2 4.0000000000000000e+00 9.5457015144163737e+00 9.0229823103898816e+00 2.0357815305149153e+01 0 0 0
95 0 3 -2.0000000000000000e+00 1.0785808316726287e+01 1.0097071958109231e+01 2.0121044400195924e+01 0 0 0
94 0 3 -2.0000000000000000e+00 9.2865014180143017e+00 8.1108045344139885e+00 1.9061054769813484e+01 0 0 0
76 0 1 2.0000000000000000e+00 1.3341929560254041e+01 1.0022030378866640e+01 2.0032081801813028e+01 0 0 0
935 0 4 1.0000000000000000e+00 1.4558970315792731e+01 8.0850701047814333e+00 2.1484975117891370e+01 0 0 0
102 0 3 -2.0000000000000000e+00 5.6459078285726489e+00 1.0979292166519503e+01 1.9343100794043227e+01 0 0 0
83 0 2 4.0000000000000000e+00 7.1178802211395027e+00 1.1161512484910908e+01 2.0058286955175245e+01 0 0 0
99 0 3 -2.0000000000000000e+00 6.8030838345149975e+00 1.1836625017614542e+01 2.1470488891300651e+01 0 0 0
105 0 4 1.0000000000000000e+00 7.3888773190379862e+00 1.3551789889638465e+01 1.9433231017416333e+01 0 0 0
98 0 3 -2.0000000000000000e+00 7.9761167327124243e+00 1.2274274463145382e+01 1.9261556694474432e+01 0 0 0
106 0 4 1.0000000000000000e+00 1.1062941938040920e+01 1.1227134532577915e+01 1.9499370641747852e+01 0 0 0
119 0 2 4.0000000000000000e+00 1.2645688573802323e+01 1.3645175510150350e+01 1.9225898234616984e+01 0 0 0
138 0 3 -2.0000000000000000e+00 1.1704407943335088e+01 1.2379779234776919e+01 1.9587972810365983e+01 0 0 0
133 0 3 -2.0000000000000000e+00 1.3561376353520526e+01 1.3854091479066229e+01 2.0536859689569440e+01 0 0 0
130 0 3 -2.0000000000000000e+00 1.4816027886704898e+01 1.1713344502035314e+01 2.1089225963668436e+01 0 0 0
118 0 2 4.0000000000000000e+00 1.4974824919949889e+01 1.3275209704915202e+01 2.1189605237033032e+01 0 0 0
131 0 3 -2.0000000000000000e+00 1.6269897484217264e+01 1.3718581034861991e+01 2.0285724912757338e+01 0 0 0
103 0 3 -2.0000000000000000e+00 6.8724967091545164e+00 1.4590236392208114e+01 1.9343696628132065e+01 0 0 0
78 0 1 2.0000000000000000e+00 6.6278336358066365e+00 1.5283206848327033e+01 2.1515231014138482e+01 0 0 0
135 0 3 -2.0000000000000000e+00 1.1850177371939756e+01 1.5041010669683850e+01 1.8980374309442205e+01 0 0 0
382 0 3 -2.0000000000000000e+00 7.6469584717093992e+00 1.7380713622305631e+01 2.0699686091011483e+01 0 0 0
385 0 3 -2.0000000000000000e+00 7.3676682503427502e+00 1.9972031231880486e+01 2.1478151642223075e+01 0 0 0
383 0 3 -2.0000000000000000e+00 9.5337368365119097e+00 1.9337966326870756e+01 2.0178232295996253e+01 0 0 0
370 0 2 4.0000000000000000e+00 8.4024942338781283e+00 1.8707881790272452e+01 2.1159946845509378e+01 0 0 0
137 0 3 -2.0000000000000000e+00 1.3356359106859538e+01 1.7276722135678511e+01 1.9097191654527077e+01 0 0 0
142 0 4 1.0000000000000000e+00 1.4563928742974797e+01 1.7132860382424138e+01 2.0054621057569602e+01 0 0 0
139 0 3 -2.0000000000000000e+00 1.5719282474870285e+01 1.7494741634568967e+01 2.0579166446339919e+01 0 0 0
141 0 4 1.0000000000000000e+00 1.6485916431267423e+01 1.8161236548185645e+01 1.9826910944082158e+01 0 0 0
400 0 1 2.0000000000000000e+00 1.5163295276117523e+01 1.9905171408716157e+01 2.1214880545290903e+01 0 0 0
534 0 3 -2.0000000000000000e+00 1.6877854983921907e+01 1.9433825464977307e+01 1.9349723263558488e+01 0 0 0
390 0 3 -2.0000000000000000e+00 5.2926521970857285e+00 2.1749629279729849e+01 2.1007248183436140e+01 0 0 0
371 0 2 4.0000000000000000e+00 6.8964633737069452e+00 2.1530034192689435e+01 2.1235029673208992e+01 0 0 0
386 0 3 -2.0000000000000000e+00 7.6467438358302431e+00 2.2213540252053448e+01 1.9993617141811111e+01 0 0 0
394 0 4 1.0000000000000000e+00 9.6278220787613638e+00 2.2496434052265322e+01 1.9270059191538319e+01 0 0 0
393 0 4 1.0000000000000000e+00 9.9491998271397915e+00 2.0373814016746259e+01 1.9480700530177685e+01 0 0 0
418 0 3 -2.0000000000000000e+00 1.3192657821488691e+01 2.1265864146413776e+01 2.0895534904685665e+01 0 0 0
872 0 2 4.0000000000000000e+00 4.8862870690317859e+00 1.0229025567519317e+01 2.4027406010833893e+01 0 0 0
883 0 3 -2.0000000000000000e+00 6.3954569233756748e+00 1.0909314960555779e+01 2.3738895466610966e+01 0 0 0
96 0 3 -2.0000000000000000e+00 9.8580932843378033e+00 8.2555047756841091e+00 2.1683449051831026e+01 0 0 0
866 0 1 2.0000000000000000e+00 1.0207058409840087e+01 9.4153869414376690e+00 2.3645653513538814e+01 0 0 0
936 0 4 1.0000000000000000e+00 1.3086115422467332e+01 8.8250998849678037e+00 2.2996742383311211e+01 0 0 0
914 0 3 -2.0000000000000000e+00 1.2662224405380954e+01 9.2303653801507348e+00 2.4170353975469702e+01 0 0 0
932 0 3 -2.0000000000000000e+00 1.3849751842942862e+01 8.9402549906515034e+00 2.2003430590972489e+01 0 0 0
901 0 1 2.0000000000000000e+00 1.5359015251440825e+01 1.0412527210117998e+01 2.2935093210507262e+01 0 0 0
84 0 2 4.0000000000000000e+00 7.3992334844170644e+00 1.1965181748280592e+01 2.2974665436511998e+01 0 0 0
100 0 3 -2.0000000000000000e+00 7.1513947984560140e+00 1.3480635792609892e+01 2.3325937283964283e+01 0 0 0
101 0 3 -2.0000000000000000e+00 8.9992732120049865e+00 1.1495957879419244e+01 2.2943650393338242e+01 0 0 0
75 0 1 2.0000000000000000e+00 1.0977420988836080e+01 1.2413061754794152e+01 2.1924987069133302e+01 0 0 0
918 0 3 -2.0000000000000000e+00 1.1758374905514930e+01 1.2814077871125747e+01 2.4004734166033554e+01 0 0 0
132 0 3 -2.0000000000000000e+00 1.5203650084694425e+01 1.3758291934788366e+01 2.2643372439302023e+01 0 0 0
1154 0 1 2.0000000000000000e+00 7.7981713105068353e+00 1.9408446384244538e+01 2.4223619590891275e+01 0 0 0
384 0 3 -2.0000000000000000e+00 9.1564492001355511e+00 1.8518604340113832e+01 2.2531639449237474e+01 0 0 0
1189 0 1 2.0000000000000000e+00 1.1254228001168492e+01 1.9760467159822976e+01 2.2517373108399678e+01 0 0 0
387 0 3 -2.0000000000000000e+00 7.2769693676406622e+00 2.2455255827113820e+01 2.2568671257223318e+01 0 0 0
363 0 1 2.0000000000000000e+00 9.8927471383705061e+00 2.2965135779489902e+01 2.4176989814658153e+01 0 0 0
406 0 2 4.0000000000000000e+00 1.2849428498995216e+01 2.2577184405698109e+01 2.1772186812416741e+01 0 0 0
420 0 3 -2.0000000000000000e+00 1.1712421184627857e+01 2.2133922292772972e+01 2.2806156963255734e+01 0 0 0
1314 0 3 -2.0000000000000000e+00 1.5704221415535786e+01 2.0794142320731773e+01 2.3253685809173682e+01 0 0 0
1304 0 2 4.0000000000000000e+00 1.6969631299746332e+01 2.1509214202784452e+01 2.3869905222024148e+01 0 0 0
881 0 3 -2.0000000000000000e+00 4.9976771857755731e+00 8.6750686948693385e+00 2.4496923128388232e+01 0 0 0
907 0 2 4.0000000000000000e+00 1.3220767403676781e+01 1.0005569528201725e+01 2.5478353170482112e+01 0 0 0
913 0 3 -2.0000000000000000e+00 1.3652337218157340e+01 9.0962038132065732e+00 2.6675448896435430e+01 0 0 0
915 0 3 -2.0000000000000000e+00 1.4486871234936645e+01 1.0944017900341423e+01 2.4995017100943890e+01 0 0 0
921 0 3 -2.0000000000000000e+00 7.1392850600115292e+00 1.3801701390717895e+01 2.6505243376842149e+01 0 0 0
909 0 2 4.0000000000000000e+00 8.6228120851485457e+00 1.3471536780629867e+01 2.6792664295114928e+01 0 0 0
916 0 3 -2.0000000000000000e+00 9.6804854722759721e+00 1.2684103338142824e+01 2.5874629938474168e+01 0 0 0
917 0 3 -2.0000000000000000e+00 1.1895147110476417e+01 1.1014989314194340e+01 2.5749904566015715e+01 0 0 0
908 0 2 4.0000000000000000e+00 1.1353506941335391e+01 1.2511924598608928e+01 2.5492381865081722e+01 0 0 0
919 0 3 -2.0000000000000000e+00 1.2217152715884030e+01 1.3548691544053003e+01 2.6365514592473655e+01 0 0 0
902 0 1 2.0000000000000000e+00 1.4348946841850413e+01 1.3512699956200233e+01 2.4829900373520331e+01 0 0 0
1029 0 3 -2.0000000000000000e+00 1.6499469323023909e+01 1.3289664765753850e+01 2.5843824750584997e+01 0 0 0
255 0 1 2.0000000000000000e+00 5.5704574097839128e+00 1.4430474103435046e+01 2.4755716007437758e+01 1 0 0
1167 0 3 -2.0000000000000000e+00 6.5060476135399314e+00 1.9649899123645902e+01 2.6026489833931148e+01 0 0 0
1224 0 4 1.0000000000000000e+00 9.4277347810929033e+00 1.7486417435970786e+01 2.6672705669481488e+01 0 0 0
1201 0 3 -2.0000000000000000e+00 9.9255528982292311e+00 1.8602637915237803e+01 2.6160870252336753e+01 0 0 0
1195 0 2 4.0000000000000000e+00 1.0744826759792538e+01 1.9870092459739784e+01 2.5628465056449645e+01 0 0 0
1203 0 3 -2.0000000000000000e+00 1.2082861480380869e+01 1.9726127592525728e+01 2.4757153340900146e+01 0 0 0
1169 0 3 -2.0000000000000000e+00 4.8959064683010647e+00 2.1772318124467979e+01 2.5786812756262844e+01 0 0 0
1159 0 2 4.0000000000000000e+00 5.1451656341266041e+00 2.0324031728167700e+01 2.6559137033695031e+01 0 0 0
1202 0 3 -2.0000000000000000e+00 9.6883995956996252e+00 2.0656975849924788e+01 2.4663399201856951e+01 0 0 0
1205 0 3 -2.0000000000000000e+00 1.1000675832148444e+01 2.0965903104634361e+01 2.6829068115309070e+01 0 0 0
1190 0 1 2.0000000000000000e+00 1.3585282342626622e+01 2.1762833809658094e+01 2.4811305401950548e+01 0 0 0
1196 0 2 4.0000000000000000e+00 1.1077514871702602e+01 2.2577336277296322e+01 2.7108785926286352e+01 0 0 0
1305 0 2 4.0000000000000000e+00 1.6570412480360304e+01 2.1932007575573635e+01 2.6973208610610598e+01 0 0 0
1312 0 3 -2.0000000000000000e+00 1.6424763960866478e+01 2.2208779368079387e+01 2.5357648701237149e+01 0 0 0
926 0 3 -2.0000000000000000e+00 9.1978375641755310e+00 9.6317761142738263e+00 2.8383754404552747e+01 0 0 0
911 0 2 4.0000000000000000e+00 9.6473648521126059e+00 1.0464928778348279e+01 2.9660748094822168e+01 0 0 0
922 0 3 -2.0000000000000000e+00 1.3892126461244448e+01 1.0898621278206654e+01 2.9747267813217380e+01 0 0 0
905 0 1 2.0000000000000000e+00 1.4503893004512586e+01 9.0113761312420060e+00 2.8710529925922252e+01 0 0 0
927 0 3 -2.0000000000000000e+00 8.5383249459029980e+00 1.1696878694229325e+01 2.9877898552979662e+01 0 0 0
925 0 3 -2.0000000000000000e+00 1.1165906674367108e+01 1.1185149309376031e+01 2.9637012674661413e+01 0 0 0
1153 0 1 2.0000000000000000e+00 6.7687870033102540e+00 1.5768911705012234e+01 2.8712957318259452e+01 0 0 0
1223 0 4 1.0000000000000000e+00 9.2609011035016096e+00 1.5829827440911048e+01 2.7816915459123734e+01 0 0 0
920 0 3 -2.0000000000000000e+00 9.4592291589713184e+00 1.4523859416295545e+01 2.7634164093680084e+01 0 0 0
1220 0 3 -2.0000000000000000e+00 8.6415775838362308e+00 1.6820711852675490e+01 2.7543135104034999e+01 0 0 0
906 0 1 2.0000000000000000e+00 1.1847355866832164e+01 1.4616425345739113e+01 2.8357705110990743e+01 0 0 0
1183 0 3 -2.0000000000000000e+00 6.4549172467405098e+00 1.8682508389450199e+01 2.9512306986575464e+01 0 0 0
1186 0 4 1.0000000000000000e+00 5.8467079242208051e+00 1.9835371117317550e+01 2.9125519860081329e+01 0 0 0
1188 0 4 1.0000000000000000e+00 5.4159501871872324e+00 1.7946001368022664e+01 2.9038924005597931e+01 0 0 0
1193 0 1 2.0000000000000000e+00 8.1369246899417806e+00 1.9056948512637124e+01 2.7923200233490991e+01 0 0 0
933 0 4 1.0000000000000000e+00 1.0461111234326030e+01 1.7046895024815306e+01 2.9784684159720236e+01 0 0 0
1301 0 1 2.0000000000000000e+00 1.6815415558961377e+01 1.9905481012840895e+01 2.9308783977179065e+01 0 0 0
1214 0 3 -2.0000000000000000e+00 7.6970566635384596e+00 2.2840124371470292e+01 2.9250382153420556e+01 0 0 0