LAMMPS (12 Dec 2018)
  using 1 OpenMP thread(s) per MPI task
# Input file for Aluminium crystal

# Run command:  lmp -in in.aluminium



# ------------------------- ATOM INITIALIZATION -------------------------

units 			metal
dimension		3
boundary		p	p	p
atom_style		atomic

print "******************** Model initialized ********************"
******************** Model initialized ********************



# ------------------------- ATOM DEFINITION -------------------------

lattice			fcc 4.05
Lattice spacing in x,y,z = 4.05 4.05 4.05
region			whole block 0 30 0 30 0 30
region			crystal block 0 30 0 30 0 30
create_box		1 whole
Created orthogonal box = (0 0 0) to (121.5 121.5 121.5)
  1 by 1 by 2 MPI processor grid
create_atoms	1 region crystal
Created 108000 atoms
  Time spent = 0.00892401 secs

print "******************** Atoms generated ********************"
******************** Atoms generated ********************



# ------------------------- FORCE FIELDS / POTENTIAL -------------------------

pair_style		lj/cut 2.5
pair_coeff		* * .3920 2.62 2.5

# pair_style		eam/alloy
# pair_coeff		* * Al_Zhou04.eam.alloy Al

print "******************** Force field set ********************"
******************** Force field set ********************



# ------------------------- SETTINGS -------------------------

mass				1 26.982

thermo_style		custom step pe ke etotal temp press vol density cpu
thermo				100

dump			 	1 all custom 100 dump_loc_atom-108000_ts-10000 id type x y z

reset_timestep		0



# ------------------------- STEP 1: EQUILIBRATION -------------------------

print "******************** Equilibration at 300 K ********************"
******************** Equilibration at 300 K ********************

velocity 			all create 300.0 199 mom yes rot no dist gaussian

fix					equilibration all npt temp 300 300 0.1 iso 1 1 1 drag 0.2

timestep 			0.001

run					10000
Neighbor list info ...
  update every 1 steps, delay 10 steps, check yes
  max neighbors/atom: 2000, page size: 100000
  master list distance cutoff = 4.5
  ghost atom cutoff = 4.5
  binsize = 2.25, bins = 54 54 54
  1 neighbor lists, perpetual/occasional/extra = 1 0 0
  (1) pair lj/cut, perpetual
      attributes: half, newton on
      pair build: half/bin/atomonly/newton
      stencil: half/bin/3d/newton
      bin: standard
Per MPI rank memory allocation (min/avg/max) = 22.02 | 22.02 | 22.02 Mbytes
Step PotEng KinEng TotEng Temp Press Volume Density CPU 
       0            0    4187.9899    4187.9899          300    2493.9968    1793613.4     2.697852            0 
     100    2188.8055    4292.4312    6481.2367    307.48149    21401.856    1839247.7    2.6309145   0.48660111 
     200    2272.8742    4699.5345    6972.4087    336.64368    21692.344    1895852.8    2.5523624    1.0304501 
     300    2246.3583    5006.6053    7252.9636    358.64021    21019.729    1950384.9    2.4809993    1.5617511 
     400    2269.0434    5207.6821    7476.7255    373.04403    20707.577    2004706.9     2.413771     2.068912 
     500    2248.7705    5326.4164    7575.1869    381.54937    20066.923    2058866.4    2.3502756     2.569232 
     600    2176.0029    5422.9751     7598.978     388.4662    19047.828      2113343    2.2896915    3.0680079 
     700    2107.9229    5477.3003    7585.2232     392.3577    18092.591    2168041.4    2.2319239     3.567857 
     800    2052.9854    5505.3927     7558.378    394.37005    17277.335    2222645.7    2.1770917    4.0661771 
     900    1921.5817    5510.1002    7431.6819    394.70727    15942.584    2277178.5    2.1249557     4.591713 
    1000    1837.1773    5489.3014    7326.4787    393.21738    14994.573    2331324.2     2.075603     5.345793 
    1100    1734.6828    5482.4141    7217.0969    392.72402    13972.484    2384987.4     2.028901     5.858686 
    1200    1682.0049    5465.1325    7147.1374    391.48608    13320.334    2438466.7    1.9844041    6.3469839 
    1300    1622.3484    5428.5232    7050.8716    388.86363    12627.599    2491562.8    1.9421158    6.8325081 
    1400    1553.9662    5405.5176    6959.4838    387.21566    11947.432    2544216.8    1.9019226     7.316607 
    1500    1487.4405    5378.9878    6866.4282    385.31524    11289.559    2596733.8    1.8634576     7.770884 
    1600    1320.0909    5340.1678    6660.2587    382.53443    10055.928    2648896.3    1.8267621     8.254576 
    1700    1333.0768    5287.7546    6620.8314     378.7799    9911.8281    2700771.6    1.7916744    8.7349281 
    1800    1274.3308    5259.8447    6534.1756    376.78062    9382.5366    2752688.8    1.7578825     9.215785 
    1900    1230.9637    5220.9161    6451.8799    373.99203    8949.2424    2804421.4    1.7254552    9.6912861 
    2000    1150.2219     5190.605    6340.8269    371.82074    8324.6361    2856100.8    1.6942341     10.16479 
    2100    1087.2805    5156.1964     6243.477    369.35593    7820.0781    2907629.4    1.6642092    10.631152 
    2200    1041.9377    5112.5024    6154.4401    366.22598    7426.0763    2959295.6    1.6351538    11.063498 
    2300    955.24343    5074.9963    6030.2398     363.5393    6832.2255    3010826.8    1.6071676    11.523669 
    2400    988.23778    5038.9381    6027.1759    360.95632    6887.5517    3062220.6    1.5801943    11.980998 
    2500    901.40878     4991.073    5892.4818    357.52758    6306.3116    3113700.4    1.5540684    12.412571 
    2600    878.05812    4969.8558    5847.9139    356.00772    6080.8899    3165212.6    1.5287767    12.868789 
    2700    837.49277    4940.6853    5778.1781    353.91814    5771.6542    3216976.6    1.5041774     13.32409 
    2800    850.46347    4913.9412    5764.4046    352.00236    5737.5834    3268634.1    1.4804053    13.754672 
    2900    798.16813    4890.5455    5688.7136    350.32645    5391.2496    3320609.5    1.4572335    14.212949 
    3000    761.34139    4865.9272    5627.2686    348.56296    5126.5621    3372704.8    1.4347249    14.665151 
    3100    729.74533    4846.7527    5576.4981    347.18943    4893.3425    3425080.3    1.4127854     15.09847 
    3200     753.6873    4814.0182    5567.7054    344.84454    4916.2052    3477505.6    1.3914869    15.542345 
    3300    692.85409    4781.5497    5474.4038    342.51871    4565.0087    3530168.4    1.3707288    15.995427 
    3400    665.97514    4758.0555    5424.0307    340.83574    4372.9677    3582910.5     1.350551    16.437628 
    3500    639.20205    4736.5468    5375.7488      339.295    4187.0278    3635910.4    1.3308643    16.903702 
    3600    654.94827    4713.4171    5368.3654    337.63814    4185.7421    3689351.6    1.3115864    17.409831 
    3700    610.19826      4706.31    5316.5083    337.12904    3933.6704    3743231.3    1.2927076    17.930107 
    3800    577.42806    4691.5859     5269.014     336.0743     3736.961    3797049.2    1.2743852    18.470332 
    3900    534.55912    4674.4018    5208.9609    334.84334    3501.9897      3851214    1.2564618    18.960909 
    4000    509.25459    4666.0406    5175.2952     334.2444    3345.6426    3906246.4    1.2387604     19.50632 
    4100    563.50347    4653.5207    5217.0242    333.34756    3515.4952    3961181.5    1.2215808    20.020409 
    4200     534.2023    4628.1517     5162.354    331.53029    3340.7291    4016633.1    1.2047163    20.515699 
    4300    494.21919    4615.3872    5109.6064    330.61593    3138.9317    4072227.8    1.1882693    21.014405 
    4400    500.37973    4599.0855    5099.4653    329.44818    3118.8262    4128262.8    1.1721403    21.513998 
    4500    506.45104    4579.0464    5085.4974    328.01271    3093.9702    4184703.8    1.1563312    22.014316 
    4600    492.00529    4565.8109    5057.8162    327.06461    2994.2919    4241512.7    1.1408438    22.484468 
    4700    465.01042    4556.5164    5021.5268    326.39881    2852.5074    4298622.7    1.1256869    22.980497 
    4800    458.62963     4538.025    4996.6546    325.07421    2784.7786    4355804.1    1.1109093    23.457092 
    4900    461.37167    4527.4907    4988.8624     324.3196    2758.2586    4413555.3    1.0963731    23.932234 
    5000    430.35086    4519.7596    4950.1105    323.76579     2609.862    4471976.3    1.0820503     24.37809 
    5100     417.9573    4510.1135    4928.0708    323.07481    2530.9378    4530549.1    1.0680611    24.837409 
    5200    418.55756    4493.2927    4911.8502    321.86988    2496.7809    4589507.6    1.0543404     25.26994 
    5300    407.91243    4478.4741    4886.3865    320.80837    2424.0087    4648797.2    1.0408936    25.728184 
    5400    374.41289    4480.1752    4854.5881    320.93023    2280.7253      4708840    1.0276211    26.162427 
    5500    397.67204    4461.6189     4859.291    319.60098    2324.4954    4768790.1    1.0147025    26.618629 
    5600     418.9909    4449.0301     4868.021     318.6992    2364.7978    4829465.9    1.0019541    27.051887 
    5700    363.95142    4445.5076     4809.459    318.44687    2153.9877    4890915.4   0.98936559    27.507434 
    5800    372.55796    4435.3516    4807.9095    317.71936    2151.4437    4952381.6   0.97708613    27.940792 
    5900    360.22809    4427.6627    4787.8908    317.16858    2086.5272    5014802.4   0.96492405    28.395767 
    6000    352.12975    4424.4408    4776.5706    316.93778    2034.1559    5077431.3   0.95302194    28.832207 
    6100    345.59948    4417.9613    4763.5607    316.47363    1987.8231      5140653   0.94130131    29.278632 
    6200    352.86424    4410.8115    4763.6757    315.96147    1984.0898      5204005    0.9298422    29.699873 
    6300    324.59067    4409.2002    4733.7908    315.84605    1874.2791    5267944.2   0.91855631    30.142028 
    6400    305.03998     4405.403     4710.443    315.57404    1793.1125    5332604.1   0.90741847     30.56673 
    6500    355.30657    4395.4896    4750.7962    314.86391    1917.6106    5397681.2   0.89647817    31.010104 
    6600    331.70535    4380.5251    4712.2304    313.79195    1823.3295    5463190.9   0.88572842    31.435171 
    6700    304.63635     4373.872    4678.5083    313.31537    1722.7297    5528973.2   0.87519024    31.856831 
    6800    298.88246    4367.0799    4665.9624    312.82883      1681.77    5595747.3   0.86474659    32.257081 
    6900    323.70442    4360.5316     4684.236    312.35975    1731.2041    5662780.1   0.85451021    32.676693 
    7000    277.61682    4356.0381    4633.6549    312.03787    1581.2061    5730414.1   0.84442474    33.076099 
    7100    278.97103    4350.5535    4629.5246    311.64499    1566.2971    5798708.7   0.83447948    33.488325 
    7200    278.87774    4347.0273     4625.905    311.39239    1547.9963    5867805.4   0.82465301    33.877307 
    7300    266.02374    4348.3686    4614.3924    311.48847    1494.9058    5937417.3   0.81498456    34.285585 
    7400    270.71511    4345.0666    4615.7817    311.25194    1488.8831    6006874.2   0.80556097     34.67609 
    7500     264.4064    4341.7074    4606.1138    311.01131    1456.2194    6077318.6   0.79622341    35.086379 
    7600    251.29364     4334.926    4586.2196    310.52553    1403.8954    6148340.7    0.7870259    37.141644 
    7700    242.43751    4329.6258    4572.0633    310.14586    1364.6314    6219895.1   0.77797187    37.554336 
    7800    262.76956    4321.3543    4584.1238    309.55334     1398.378    6291901.7    0.7690685    37.944872 
    7900    243.44801    4314.1756    4557.6236    309.03911    1332.3479    6364507.1   0.76029507    38.354758 
    8000    254.11865    4311.6749    4565.7936    308.85998    1342.9622    6438288.6   0.75158224    38.746311 
    8100    253.22217    4315.3063    4568.5285    309.12011    1326.2764      6512553   0.74301175    39.149023 
    8200    243.73194    4308.8581      4552.59     308.6582    1287.6288    6587165.9   0.73459565    39.528347 
    8300    235.10825    4304.0147    4539.1229    308.31125    1251.8588    6662492.8   0.72629023    39.927169 
    8400    271.60125    4296.6419    4568.2431    307.78311    1322.3456    6737972.5   0.71815422    40.308372 
    8500    228.08747    4302.0725    4530.1599    308.17212    1207.9324    6814707.4   0.71006767    40.691545 
    8600    212.26767    4300.7859    4513.0536    308.07996    1156.3945    6892015.1   0.70210284    41.090556 
    8700    217.88814    4296.1707    4514.0588    307.74936    1156.3702    6970125.7   0.69423474     41.47449 
    8800    222.79266    4289.2017    4511.9943    307.25014     1153.575    7048494.9   0.68651584    41.875532 
    8900    206.44832    4283.8512    4490.2995    306.86687    1101.3243    7127487.7    0.6789073    42.261986 
    9000    214.59958    4284.2989    4498.8984    306.89894     1109.005    7207481.9   0.67137226    42.662887 
    9100    203.46633    4280.1899    4483.6563     306.6046    1070.2044    7287865.5   0.66396717    43.058469 
    9200     191.5359     4281.333    4472.8689    306.68648    1034.1906    7369025.4   0.65665446    43.431902 
    9300    218.92004    4276.9774    4495.8974    306.37448    1080.8684      7450950   0.64943442    43.822241 
    9400    180.57643    4275.6709    4456.2473    306.28088    987.30001      7533551   0.64231376    44.198443 
    9500    203.49644    4275.8661    4479.3625    306.29487    1024.8054    7616961.4   0.63528002    44.588327 
    9600    174.52409    4271.7532    4446.2773    306.00025    952.50294    7700759.2   0.62836706    44.963137 
    9700    190.89442    4269.0944    4459.9888    305.80979    976.48677    7785656.9   0.62151511    45.356316 
    9800    171.59382     4269.178    4440.7719    305.81578    926.41277    7871026.7   0.61477411    45.730529 
    9900    188.47609    4264.2039    4452.6799    305.45946    949.57868    7956978.1   0.60813331    46.120616 
   10000    192.69984    4258.5198    4451.2197     305.0523    946.29657      8043648    0.6015807    46.495596 
Loop time of 46.4956 on 2 procs for 10000 steps with 108000 atoms

Performance: 18.582 ns/day, 1.292 hours/ns, 215.074 timesteps/s
96.1% CPU use with 2 MPI tasks x 1 OpenMP threads

MPI task timing breakdown:
Section |  min time  |  avg time  |  max time  |%varavg| %total
---------------------------------------------------------------
Pair    | 12.835     | 13.135     | 13.436     |   8.3 | 28.25
Neigh   | 5.7219     | 5.8513     | 5.9808     |   5.4 | 12.58
Comm    | 2.0414     | 2.5025     | 2.9635     |  29.1 |  5.38
Output  | 10.05      | 10.05      | 10.05      |   0.0 | 21.61
Modify  | 12.821     | 12.976     | 13.13      |   4.3 | 27.91
Other   |            | 1.981      |            |       |  4.26

Nlocal:    54000 ave 54003 max 53997 min
Histogram: 1 0 0 0 0 0 0 0 0 1
Nghost:    10283.5 ave 10294 max 10273 min
Histogram: 1 0 0 0 0 0 0 0 0 1
Neighs:    123180 ave 123239 max 123120 min
Histogram: 1 0 0 0 0 0 0 0 0 1

Total # of neighbors = 246359
Ave neighs/atom = 2.2811
Neighbor list builds = 263
Dangerous builds = 0

unfix				equilibration



# ------------------------- STEP 2: INCREASE TEMPERATURE -------------------------

print "******************** Increasing temperature to 700 K ********************"
******************** Increasing temperature to 700 K ********************

neighbor			0.5 bin
neigh_modify		every 10 delay 0 check yes

velocity			all create 700.0 199 mom yes rot yes dist gaussian

fix					inc_temp all npt temp 700.0 700.0 0.1 iso 1 1 1 drag 0.2

timestep 			0.001

run 				10000
Per MPI rank memory allocation (min/avg/max) = 27.28 | 27.29 | 27.29 Mbytes
Step PotEng KinEng TotEng Temp Press Volume Density CPU 
   10000    192.69984    9771.9765    9964.6763          700    1678.4296      8043648    0.6015807            0 
   10100    394.05005    9763.6562    10157.706    699.40399     2032.632    8150515.5   0.59369292   0.38634491 
   10200    375.79044    9783.5203    10159.311    700.82692    1972.4482    8270440.5   0.58508412   0.77459788 
   10300    374.28345    9815.2561     10189.54    703.10027    1948.6263    8376964.1   0.57764404    1.1660049 
   10400    369.26145    9784.4778    10153.739    700.89551    1910.9254    8480697.7   0.57057846    1.5589731 
   10500    341.65038    9783.5463    10125.197    700.82879    1838.9266    8582265.3    0.5638259     1.954505 
   10600    355.78084    9787.9288     10143.71    701.14272    1843.3934    8683147.9   0.55727525    2.3514559 
   10700    392.46886    9779.6256    10172.094    700.54793    1885.9893      8783498   0.55090847    2.7508099 
   10800    339.83312    9782.2756    10122.109    700.73776    1774.0595      8883808   0.54468798    3.1526399 
   10900    353.81244    9790.6586    10144.471    701.33827    1777.6529    8984482.4   0.53858455    3.5568941 
   11000    347.70402     9797.571    10145.275    701.83342    1749.6722    9084991.1    0.5326261    3.9690819 
   11100    335.14551    9797.8689    10133.014    701.85476    1709.7908    9185807.2   0.52678042     4.352154 
   11200    320.83463    9790.4974    10111.332    701.32672    1666.5165    9287034.4    0.5210386     4.737164 
   11300    323.06901    9781.0588    10104.128    700.65059    1649.9616    9388577.6   0.51540325    5.1250069 
   11400    339.77794    9781.2826    10121.061    700.66663    1659.3381    9490524.6    0.5098668     5.515085 
   11500    300.11172    9777.8408    10077.952    700.42008    1575.4785      9593125   0.50441367     5.908586 
   11600    310.84752    9774.4399    10085.287    700.17646    1577.0472    9695877.2   0.49906814     6.306999 
   11700    331.86718     9744.614    10076.481    698.03993    1588.6507    9799425.2   0.49379462    6.7047889 
   11800    322.86855    9744.3655    10067.234    698.02213     1560.003    9903699.2   0.48859555     7.105298 
   11900    302.12778    9775.7862    10077.914    700.27291    1514.2319     10008546   0.48347718    7.5083458 
   12000    299.98924    9809.1198    10109.109     702.6607    1499.0793     10114472   0.47841386     7.918241 
   12100    323.30069    9777.7225    10101.023    700.41161    1514.3512     10221043    0.4734256     8.299422 
   12200     310.9077    9767.6052    10078.513    699.68687    1479.3492     10327856   0.46852932     8.684653 
   12300    285.43216    9778.2822    10063.714     700.4517    1426.8518     10435754   0.46368508    9.0712349 
   12400    264.30658    9778.9436     10043.25    700.49908     1381.801     10544465   0.45890459    9.4618421 
   12500    267.72866    9748.2027    10015.931    698.29701    1369.1866     10654061   0.45418395    9.8525119 
   12600    290.82149    9750.7647    10041.586    698.48053    1387.7526     10763970   0.44954636    10.247351 
   12700    269.91728    9804.5361    10074.453    702.33235    1350.0323     10875168   0.44494977    10.644146 
   12800    278.70041    9816.3565    10095.057    703.17909    1348.8734     10987781   0.44038949    11.045773 
   12900    270.84244    9773.7651    10044.608    700.12813    1320.3086     11101013   0.43589746      11.4492 
   13000    237.37169    9773.6755    10011.047    700.12171    1261.0272     11214698   0.43147872    11.860246 
   13100     275.3789    9774.9448    10050.324    700.21263    1300.4417     11329436   0.42710895    12.241084 
   13200    282.23101    9760.0066    10042.238    699.14256      1294.65     11444938   0.42279859    12.624577 
   13300    253.02002    9745.7616    9998.7816    698.12214    1242.5588     11561581   0.41853302    13.010847 
   13400    234.21181    9761.2066    9995.4184    699.22851     1205.234     11678758   0.41433373    13.400936 
   13500    268.29233    9810.8772     10079.17    702.78659    1242.9659     11797866   0.41015072     13.79232 
   13600    265.12462    9784.8484    10049.973    700.92206    1222.2881     11917900   0.40601979    14.186928 
   13700    243.91055    9757.5626    10001.473    698.96748    1182.2932     12038430    0.4019547    14.584521 
   13800    218.01748    9769.2294    9987.2469    699.80322    1137.9418     12159511   0.39795213    14.984963 
   13900    225.22957    9780.6551    10005.885    700.62168    1136.4089     12281945    0.3939851     15.38808 
   14000    242.93103    9769.2452    10012.176    699.80435    1145.0633     12405332   0.39006641    15.801122 
   14100    217.93733    9741.3513    9959.2886    697.80621    1101.8784     12529849   0.38619007    16.180794 
   14200    246.42654    9758.4387    10004.865    699.03024    1126.7864     12655553   0.38235415    16.563801 
   14300    254.46534    9803.2691    10057.734     702.2416    1129.6146     12782397   0.37855995       16.949 
   14400    220.51478    9784.4692    10004.984    700.89489    1076.2776     12910529   0.37480288    17.337035 
   14500     196.0254    9741.5376     9937.563    697.81956    1032.5166     13039278   0.37110209    17.727459 
   14600    206.33137    9758.7955    9965.1269     699.0558    1035.9475     13169115   0.36744331    18.118522 
   14700     238.4321    9788.2006    10026.633    701.16219    1065.5448     13299950   0.36382868    18.510639 
   14800    209.76028    9791.8275    10001.588      701.422    1021.5837     13432482   0.36023897    20.895571 
   14900    190.98563    9736.8283    9927.8139    697.48221    986.19795     13565905   0.35669596    21.291167 
   15000     202.8394    9755.0438    9957.8831    698.78705    991.81593     13700197   0.35319954    21.695359 
   15100     188.3776     9794.397    9982.7746    701.60606    969.05598     13835993     0.349733    22.067136 
   15200    197.56689    9786.1243    9983.6912    701.01346    968.25124     13972622   0.34631319    22.441744 
   15300     209.7082    9738.0456    9947.7538    697.56941    968.78599     14110430   0.34293097    22.820966 
   15400    186.97949    9732.6033    9919.5828    697.17957    934.36343     14249338   0.33958794    23.202932 
   15500    182.56495    9790.1498    9972.7148    701.30182    924.36284     14389660   0.33627642    23.586908 
   15600    195.26387    9792.0321     9987.296    701.43665    929.00221     14531871   0.33298558    23.973761 
   15700    210.21093    9765.4508    9975.6617    699.53254    933.79372     14674970   0.32973856    24.371855 
   15800    194.48149    9754.8074    9949.2889    698.77012    907.52494     14818799   0.32653815     24.76886 
   15900    188.61612    9785.8245    9974.4406    700.99198    895.52362     14964130   0.32336684    25.168569 
   16000    197.33612    9804.3566    10001.693     702.3195    895.75269     15111127   0.32022122    25.577477 
   16100    171.32857    9766.8196    9938.1482     699.6306    858.30378     15259173   0.31711439     25.95125 
   16200     179.5239    9732.9869    9912.5108    697.20704    856.24021     15408514   0.31404088    26.328009 
   16300    180.50182    9773.4353    9953.9372     700.1045    851.60375     15559043   0.31100264    26.709784 
   16400    172.58789    9797.8699    9970.4578    701.85484    837.40656     15711206   0.30799057    27.092203 
   16500    159.08007    9773.6801    9932.7601    700.12203    813.85749     15864174   0.30502082    27.479009 
   16600    180.86334    9756.0432    9936.9065    698.85864    826.87639     16018511   0.30208198    27.871138 
   16700    173.54192    9771.6384    9945.1803    699.97578    812.86486     16174166   0.29917484     28.26523 
   16800    183.20527    9807.3285    9990.5338    702.53239    817.23109     16331370     0.296295     28.65903 
   16900    149.25925    9781.4577     9930.717    700.67917     774.2764     16490209   0.29344099    29.048729 
   17000    157.90991    9735.4366    9893.3465    697.38252    772.41228     16649980   0.29062517    29.452694 
   17100    163.36754    9746.2789    9909.6464    698.15919    770.96303     16810868   0.28784376    29.836596 
   17200    157.65227    9785.4728    9943.1251    700.96679     760.0721     16973490   0.28508593    30.215404 
   17300    144.14526    9774.2754    9918.4207    700.16468    740.22348     17137503   0.28235756    30.620064 
   17400     132.0458    9761.5057    9893.5515    699.24994    721.88653     17303133   0.27965475     31.06567 
   17500    141.03009    9776.7143    9917.7444    700.33939    723.56773     17470214   0.27698021    31.494539 
   17600    146.10264    9805.1911    9951.2937    702.37928    723.17712     17639487   0.27432223    31.949107 
   17700    179.41274    9768.4326    9947.8453    699.74614    742.87446     17809612   0.27170179    32.391612 
   17800    153.23294    9725.7346    9878.9676    696.68754    710.41258     17980758   0.26911565    32.854068 
   17900    160.01403    9755.5197    9915.5338    698.82115    711.16769     18153584   0.26655361    33.311261 
   18000    135.23371     9780.112    9915.3457    700.58278    684.61992     18328260   0.26401325    33.775961 
   18100    144.70133    9769.0465    9913.7478    699.79011    685.77181     18504648   0.26149665    34.206478 
   18200    144.40556    9764.2932    9908.6988    699.44962    678.56817     18682157   0.25901202     34.63229 
   18300    148.13657    9788.9099    9937.0465      701.213    676.29928     18861339   0.25655143     35.08187 
   18400    146.56085    9793.6073    9940.1682    701.54949    669.45144     19042281   0.25411364    35.516922 
   18500    130.32992     9760.437     9890.767    699.17339    648.35932     19224995   0.25169855    35.946748 
   18600    138.89386    9733.1351     9872.029    697.21766    647.16628     19408269   0.24932174    36.378172 
   18700    131.00126    9771.9392    9902.9404    699.99733    637.06959     19593732    0.2469618     36.79993 
   18800    127.47311     9774.922    9902.3951      700.211    628.10506     19780435   0.24463079    37.226942 
   18900    145.97951    9762.2937    9908.2732    699.30639    636.20171     19968748   0.24232383    37.650523 
   19000    111.11332    9773.9954    9885.1087    700.14462    604.19825     20158741   0.24003996    38.086067 
   19100    126.51456    9791.6043    9918.1189    701.40601     610.4674     20350416   0.23777909    38.488436 
   19200    136.82899    9776.6848    9913.5138    700.33727    612.28114     20544657   0.23553099    39.672825 
   19300     131.7338     9747.796    9879.5298    698.26787    600.39287     20739696   0.23331602    40.060664 
   19400    128.57449    9763.8513    9892.4258    699.41797    594.06364     20936627   0.23112144    40.451239 
   19500    122.52558    9780.6021    9903.1277    700.61788      584.908     21135606   0.22894557    40.845777 
   19600    132.73639    9769.4747    9902.2111    699.82079    586.09066     21336425   0.22679073    41.243784 
   19700    128.88074    9769.0474    9897.9281    699.79018    578.08278     21538775   0.22466011    41.648759 
   19800    127.43716    9793.5433    9920.9804     701.5449    572.54948     21743363   0.22254623    42.057066 
   19900    117.10055    9782.7041    9899.8047    700.76846    559.05585     21949672   0.22045448    42.463446 
   20000    134.92663    9755.0915    9890.0181    698.79047    564.99242     22157057   0.21839107    42.885247 
Loop time of 42.8853 on 2 procs for 10000 steps with 108000 atoms

Performance: 20.147 ns/day, 1.191 hours/ns, 233.180 timesteps/s
96.0% CPU use with 2 MPI tasks x 1 OpenMP threads

MPI task timing breakdown:
Section |  min time  |  avg time  |  max time  |%varavg| %total
---------------------------------------------------------------
Pair    | 4.4234     | 4.5621     | 4.7008     |   6.5 | 10.64
Neigh   | 10.395     | 10.799     | 11.204     |  12.3 | 25.18
Comm    | 1.6801     | 2.3986     | 3.117      |  46.4 |  5.59
Output  | 11.16      | 11.16      | 11.16      |   0.0 | 26.02
Modify  | 12.824     | 13.008     | 13.192     |   5.1 | 30.33
Other   |            | 0.9577     |            |       |  2.23

Nlocal:    54000 ave 54102 max 53898 min
Histogram: 1 0 0 0 0 0 0 0 0 1
Nghost:    4675.5 ave 4766 max 4585 min
Histogram: 1 0 0 0 0 0 0 0 0 1
Neighs:    6756 ave 6785 max 6727 min
Histogram: 1 0 0 0 0 0 0 0 0 1

Total # of neighbors = 13512
Ave neighs/atom = 0.125111
Neighbor list builds = 1000
Dangerous builds = 1000

unfix 				inc_temp



# ------------------------- BINDING FORCE FIELDS / POTENTIAL -------------------------

pair_style		lj/cut 10
pair_coeff		* * 3.920 2.62 10

# pair_style		eam/alloy
# pair_coeff		* * Al_Zhou04.eam.alloy Al

print "******************** Force field altered for binding ********************"
******************** Force field altered for binding ********************



# ------------------------- STEP 3a: NVE INTERACTION  -------------------------

print "******************** NVE interaction ********************"
******************** NVE interaction ********************

neighbor			0.5 bin
neigh_modify		every 10 delay 0 check yes

fix					nve all nve
fix					temp_rescale all temp/rescale 100 700 700 0.1 0.9

timestep 			0.001

run 				10000
Per MPI rank memory allocation (min/avg/max) = 36.94 | 36.94 | 36.94 Mbytes
Step PotEng KinEng TotEng Temp Press Volume Density CPU 
   20000   -197764.46    9755.0915   -188009.37    698.79047   -3266.4391     22157057   0.21839107            0 
   20100   -370314.43    26969.514   -343344.92    1931.9182   -9844.7532     22157057   0.21839107    1.2085729 
   20200   -543993.61    28814.149   -515179.46    2064.0558   -10930.859     22157057   0.21839107     2.427933 
   20300   -726401.26    29842.494   -696558.77    2137.7196    -11807.51     22157057   0.21839107    3.6496289 
   20400   -907618.69    29797.175   -877821.51    2134.4733   -10907.766     22157057   0.21839107    4.8830619 
   20500     -1075854    28476.504   -1047377.5    2039.8691   -10424.442     22157057   0.21839107    6.2909029 
   20600   -1225283.8    26456.052   -1198827.8    1895.1372   -8636.5657     22157057   0.21839107    7.5972309 
   20700   -1352385.7    24026.878   -1328358.8    1721.1272   -7171.1126     22157057   0.21839107    8.9520159 
   20800   -1457832.3    21626.812   -1436205.5    1549.2023    -5865.735     22157057   0.21839107    10.362054 
   20900     -1544221    19492.393   -1524728.6    1396.3066    -4053.437     22157057   0.21839107    11.787624 
   21000   -1612530.5    17487.137   -1595043.3    1252.6632   -3634.2372     22157057   0.21839107     13.25776 
   21100   -1666418.5    15856.619   -1650561.9    1135.8637   -3259.5645     22157057   0.21839107    14.626049 
   21200   -1710032.6    14676.663   -1695355.9    1051.3394   -3048.0753     22157057   0.21839107    16.033615 
   21300   -1745480.1    13748.421   -1731731.7    984.84627   -2414.4468     22157057   0.21839107    17.477535 
   21400   -1775109.1    13081.313   -1762027.8    937.05907   -2444.4208     22157057   0.21839107    18.958175 
   21500   -1800367.1    12581.644   -1787785.5    901.26605   -2071.7152     22157057   0.21839107     20.47498 
   21600   -1822145.7    12186.801   -1809958.9    872.98213   -1343.6657     22157057   0.21839107    22.017278 
   21700   -1841325.7    11892.102   -1829433.6    851.87184   -1563.4855     22157057   0.21839107    23.587138 
   21800   -1858729.3    11687.561   -1847041.8    837.21984   -1366.4822     22157057   0.21839107    25.184379 
   21900   -1874378.3    11494.303     -1862884    823.37614   -1162.4743     22157057   0.21839107    26.823709 
   22000   -1888526.2    11327.185     -1877199    811.40492   -1358.1008     22157057   0.21839107    28.476093 
   22100     -1902019     11245.07     -1890774    805.52268    -1014.566     22157057   0.21839107    30.109481 
   22200   -1914237.8    11111.611   -1903126.2    795.96261   -1143.2777     22157057   0.21839107     31.76919 
   22300   -1925702.5    11024.979   -1914677.5    789.75686   -1116.0953     22157057   0.21839107    33.454552 
   22400   -1936697.8    10969.162   -1925728.6    785.75848   -1123.1485     22157057   0.21839107    35.163402 
   22500   -1947063.2    10901.258   -1936161.9    780.89429   -928.77079     22157057   0.21839107    36.902281 
   22600   -1956536.2    10807.111   -1945729.1    774.15023   -838.13125     22157057   0.21839107    38.659503 
   22700   -1965626.5    10759.627   -1954866.9    770.74878   -923.75537     22157057   0.21839107    40.436754 
   22800   -1974134.3    10698.394   -1963435.9    766.36245    -691.9456     22157057   0.21839107    42.235425 
   22900   -1982499.8    10678.273   -1971821.5    764.92113   -828.19926     22157057   0.21839107    44.054186 
   23000   -1990739.8    10663.497   -1980076.3    763.86263   -868.59081     22157057   0.21839107    45.890482 
   23100   -1998570.4    10622.603   -1987947.8    760.93327   -760.96342     22157057   0.21839107    47.808809 
   23200   -2005937.2     10574.49   -1995362.7    757.48676   -839.73774     22157057   0.21839107    50.033329 
   23300   -2012722.9    10511.461   -2002211.4    752.97181   -767.71986     22157057   0.21839107    52.316618 
   23400   -2019190.4    10474.613   -2008715.8    750.33226   -640.13922     22157057   0.21839107    54.483651 
   23500   -2025554.9    10461.163   -2015093.8    749.36877   -682.83531     22157057   0.21839107    56.557421 
   23600   -2031580.1    10426.097     -2021154    746.85687   -589.40518     22157057   0.21839107    58.647309 
   23700   -2037515.7    10414.292   -2027101.4    746.01127   -703.25047     22157057   0.21839107    60.706853 
   23800   -2043054.2    10372.848   -2032681.3     743.0425   -509.23681     22157057   0.21839107    62.713303 
   23900   -2048721.6    10381.377   -2038340.2    743.65342   -443.36629     22157057   0.21839107    64.729707 
   24000   -2054140.4     10358.59   -2043781.8    742.02111   -476.39636     22157057   0.21839107    66.763188 
   24100     -2059350    10336.127   -2049013.8    740.41203   -443.58756     22157057   0.21839107    68.789984 
   24200   -2064126.2    10291.918   -2053834.3    737.24521   -470.80869     22157057   0.21839107    70.831542 
   24300   -2068674.9    10265.274   -2058409.6    735.33656   -348.31779     22157057   0.21839107    72.887576 
   24400   -2073313.3    10271.618   -2063041.7    735.79099   -467.17426     22157057   0.21839107    74.954401 
   24500   -2077868.7    10263.924   -2067604.8    735.23987   -487.47964     22157057   0.21839107    77.036759 
   24600   -2081946.2    10216.184     -2071730    731.82011   -536.32931     22157057   0.21839107    79.127641 
   24700   -2086161.8    10225.655   -2075936.2    732.49854   -272.30498     22157057   0.21839107    81.194086 
   24800   -2089969.4    10186.737   -2079782.7    729.71071    -418.9722     22157057   0.21839107    83.336076 
   24900   -2093576.7    10162.809   -2083413.9    727.99665   -329.07125     22157057   0.21839107    85.437294 
   25000   -2097286.9    10170.458   -2087116.4    728.54458    -374.8353     22157057   0.21839107    87.577767 
   25100   -2101100.9    10180.665   -2090920.2    729.27574   -152.95394     22157057   0.21839107    89.693957 
   25200   -2104636.6    10155.185   -2094481.4    727.45055   -313.93119     22157057   0.21839107    91.803416 
   25300   -2108363.5    10171.408   -2098192.1    728.61267   -179.22722     22157057   0.21839107     93.90987 
   25400   -2111814.4    10146.687   -2101667.7    726.84177   -446.81211     22157057   0.21839107    96.027604 
   25500   -2115029.7    10121.516   -2104908.2    725.03868    -199.5415     22157057   0.21839107    98.155621 
   25600   -2118049.2    10099.869   -2107949.3    723.48803   -349.28771     22157057   0.21839107     100.2884 
   25700   -2120947.2    10085.712   -2110861.5    722.47395   -176.79622     22157057   0.21839107    102.43945 
   25800   -2123534.7    10054.273   -2113480.4    720.22187   -347.75214     22157057   0.21839107    104.63275 
   25900   -2126095.2    10048.444   -2116046.8    719.80432   -367.43991     22157057   0.21839107    106.80792 
   26000   -2128698.3     10051.81   -2118646.5     720.0454   -157.31447     22157057   0.21839107    109.33595 
   26100   -2131172.1    10040.517   -2121131.6    719.23644   -326.56888     22157057   0.21839107    111.92786 
   26200   -2133671.7    10040.875   -2123630.8    719.26209   -330.66989     22157057   0.21839107    114.46688 
   26300   -2135974.9    10020.975   -2125953.9    717.83662   -225.08579     22157057   0.21839107    116.83315 
   26400   -2138414.4    10033.166   -2128381.2    718.70991    -290.3096     22157057   0.21839107    119.08991 
   26500   -2140901.2     10038.42   -2130862.8    719.08627    -318.1532     22157057   0.21839107    121.33665 
   26600   -2143163.4    10017.382     -2133146     717.5792   -205.72584     22157057   0.21839107     123.5928 
   26700   -2145387.1    10011.916   -2135375.2    717.18771   -134.85788     22157057   0.21839107    125.85308 
   26800   -2147386.2    9989.1187   -2137397.1    715.55464   -94.232688     22157057   0.21839107    128.12009 
   26900   -2149453.2    9994.4842   -2139458.7    715.93899   -211.45353     22157057   0.21839107    130.39188 
   27000   -2151602.9    10002.436   -2141600.5    716.50861   -174.38539     22157057   0.21839107    132.67076 
   27100   -2153289.9    9957.9522     -2143332    713.32207   -226.86056     22157057   0.21839107    134.94318 
   27200   -2155114.4    9967.0167   -2145147.4    713.97139   -134.30437     22157057   0.21839107    137.22355 
   27300   -2157280.8    10001.226   -2147279.6     716.4219      -291.81     22157057   0.21839107     139.5087 
   27400   -2159253.6    9984.9752   -2149268.6    715.25782   -234.58707     22157057   0.21839107    141.80622 
   27500   -2161311.8    9992.3463   -2151319.4    715.78584   -212.42126     22157057   0.21839107    144.10524 
   27600   -2163278.8    9983.4254   -2153295.4    715.14681   -105.51659     22157057   0.21839107    146.37166 
   27700   -2165191.1    9978.5835   -2155212.5    714.79996   -277.95006     22157057   0.21839107    148.63486 
   27800   -2167190.1      9985.32   -2157204.8    715.28252   -169.38111     22157057   0.21839107    150.89072 
   27900   -2169069.6    9974.6942   -2159094.9    714.52136   -62.287662     22157057   0.21839107     153.2013 
   28000   -2170937.1    9973.4337   -2160963.7    714.43107   -78.365782     22157057   0.21839107    155.46916 
   28100   -2172664.7    9959.2346   -2162705.5    713.41394   -115.31678     22157057   0.21839107     157.7511 
   28200   -2174286.9    9947.6212   -2164339.3    712.58203   -208.37482     22157057   0.21839107    160.01861 
   28300   -2175774.4    9933.1515   -2165841.3    711.54552   -215.16825     22157057   0.21839107    162.32238 
   28400   -2177373.4    9942.3557     -2167431    712.20484   -91.828567     22157057   0.21839107    164.61584 
   28500   -2178896.6    9936.5104   -2168960.1    711.78612   -245.56092     22157057   0.21839107    166.92763 
   28600   -2180369.3    9930.7115   -2170438.6    711.37073   -126.21001     22157057   0.21839107    169.66767 
   28700   -2181775.4    9924.1103   -2171851.3    710.89786   -243.15035     22157057   0.21839107     172.4208 
   28800   -2183357.4    9940.0782   -2173417.3     712.0417   -167.03661     22157057   0.21839107    174.86888 
   28900   -2184831.9    9930.7434   -2174901.1    711.37301   -117.09547     22157057   0.21839107     177.2732 
   29000   -2186242.1    9923.7575   -2176318.4    710.87259   -67.805198     22157057   0.21839107    179.64469 
   29100     -2187697    9927.7555   -2177769.2    711.15898   -122.31983     22157057   0.21839107    182.01517 
   29200     -2189020     9915.332   -2179104.6    710.26904   -119.33062     22157057   0.21839107      184.392 
   29300   -2190426.7    9922.5816   -2180504.1    710.78835   -22.047827     22157057   0.21839107     186.7701 
   29400   -2191645.5    9904.7097   -2181740.8    709.50813   -45.710888     22157057   0.21839107    189.15168 
   29500   -2192771.9    9894.3028   -2182877.6    708.76265   -192.82338     22157057   0.21839107    191.53865 
   29600   -2193936.3    9897.2186   -2184039.1    708.97152   -159.90539     22157057   0.21839107    193.92982 
   29700   -2195061.9     9892.732   -2185169.1    708.65013    159.68042     22157057   0.21839107    196.37241 
   29800   -2196068.1    9881.1294     -2186187      707.819   -134.73238     22157057   0.21839107    198.80949 
   29900   -2197114.5    9884.4812     -2187230     708.0591   -153.58426     22157057   0.21839107    201.21226 
   30000   -2198241.5    9891.8911   -2188349.6    708.58989   -193.56816     22157057   0.21839107    203.61571 
Loop time of 203.616 on 2 procs for 10000 steps with 108000 atoms

Performance: 4.243 ns/day, 5.656 hours/ns, 49.112 timesteps/s
99.2% CPU use with 2 MPI tasks x 1 OpenMP threads

MPI task timing breakdown:
Section |  min time  |  avg time  |  max time  |%varavg| %total
---------------------------------------------------------------
Pair    | 150.52     | 153.18     | 155.84     |  21.5 | 75.23
Neigh   | 28.869     | 29.398     | 29.927     |   9.8 | 14.44
Comm    | 4.0449     | 7.3125     | 10.58      | 120.8 |  3.59
Output  | 8.4725     | 8.4725     | 8.4726     |   0.0 |  4.16
Modify  | 3.8702     | 3.9568     | 4.0435     |   4.4 |  1.94
Other   |            | 1.295      |            |       |  0.64

Nlocal:    54000 ave 54032 max 53968 min
Histogram: 1 0 0 0 0 0 0 0 0 1
Nghost:    18074.5 ave 18289 max 17860 min
Histogram: 1 0 0 0 0 0 0 0 0 1
Neighs:    2.19153e+06 ave 2.22654e+06 max 2.15652e+06 min
Histogram: 1 0 0 0 0 0 0 0 0 1

Total # of neighbors = 4383060
Ave neighs/atom = 40.5839
Neighbor list builds = 1000
Dangerous builds = 1000

unfix 				temp_rescale
unfix 				nve



# ------------------------- STEP 3b: COOLING 700 - 600  -------------------------

print "******************** Decreasing temperature from 700 K to 600 K ********************"
******************** Decreasing temperature from 700 K to 600 K ********************

neighbor			0.5 bin
neigh_modify		every 10 delay 0 check yes

fix					2 all npt temp 600.0 600.0 0.1 iso 1 1 1 drag 0.2
fix					temp_rescale all temp/rescale 100 600 600 0.1 0.9

timestep 			0.001

run 				10000
Per MPI rank memory allocation (min/avg/max) = 42.66 | 42.85 | 43.04 Mbytes
Step PotEng KinEng TotEng Temp Press Volume Density CPU 
   30000   -2198241.5    9891.8911   -2188349.6    708.58989   -193.56816     22157057   0.21839107            0 
   30100   -2199569.4    8600.3328     -2190969    616.07117    -10.56078     22140448    0.2185549     2.504319 
   30200   -2201339.8    8514.5668   -2192825.2    609.92746   -103.86285     22121235   0.21874472      5.01283 
   30300   -2202564.4    8464.0982   -2194100.3    606.31222   -151.74542     22093908   0.21901527     7.523632 
   30400   -2203488.8    8437.2285   -2195051.6    604.38745   -105.81136     22048497   0.21946637    10.036405 
   30500   -2204390.3    8437.3288     -2195953    604.39463   -84.175122     21996884   0.21998131    12.552231 
   30600   -2205292.8    8438.4921   -2196854.3    604.47797   -39.129466     21939405   0.22055764    15.082866 
   30700   -2206215.7    8440.5503   -2197775.2     604.6254   -93.229745     21881035   0.22114601    17.605086 
   30800   -2207108.4    8439.0262   -2198669.3    604.51622   -3.5306897     21831602   0.22164674    20.133048 
   30900   -2208075.8    8446.6277   -2199629.2    605.06075   -1.6482209     21783734    0.2221338    22.669159 
   31000   -2208983.3    8441.3784     -2200542    604.68472   -3.5714176     21742538   0.22255467    25.492684 
   31100   -2209908.9    8441.2485   -2201467.7    604.67542   -27.750998     21692531   0.22306772    28.430682 
   31200   -2211088.7    8463.4428   -2202625.3    606.26527   -144.79968     21646062   0.22354659    31.223152 
   31300   -2212089.6    8448.2266   -2203641.4    605.17528   -9.6566467     21601744   0.22400522    33.838504 
   31400   -2213137.5    8452.2697   -2204685.2     605.4649   -137.07883     21550084    0.2245422    36.391108 
   31500   -2214378.1    8467.9767   -2205910.2    606.59005   -33.060178     21496950   0.22509721    38.947572 
   31600   -2215737.6    8478.5206   -2207259.1    607.34535    54.769401     21450375   0.22558596    41.501102 
   31700   -2216943.4    8465.4401     -2208478    606.40834   -150.26975     21417721    0.2259299    44.021446 
   31800   -2218004.5    8452.2688   -2209552.2    605.46484    -31.21836     21389708   0.22622578    46.521748 
   31900   -2219099.4    8454.9586   -2210644.5    605.65752   -4.7691959     21350036   0.22664615    49.062051 
   32000   -2220142.5    8450.2489   -2211692.3    605.32015   -11.555557     21309897   0.22707305    51.611038 
   32100   -2221330.7    8464.3193   -2212866.4    606.32806   -160.83735     21270202   0.22749682    54.124681 
   32200     -2222458     8458.252   -2213999.8    605.89344   -95.362505     21239925   0.22782111    56.627798 
   32300   -2223568.9    8456.1798   -2215112.8      605.745   -8.3028282     21219024   0.22804552    59.190042 
   32400   -2224451.7    8437.1897   -2216014.5    604.38467    8.8130728     21203044    0.2282174    61.719008 
   32500   -2225206.3    8427.2395     -2216779     603.6719    3.1542719     21196698   0.22828572    64.289804 
   32600   -2225904.2    8421.7772   -2217482.4    603.28062   -40.814183     21176127   0.22850748    66.838346 
   32700   -2226639.5    8426.8983   -2218212.6    603.64746   -58.521773     21143734   0.22885756    69.378603 
   32800   -2227504.7    8438.7993   -2219065.9    604.49997    -12.55543     21096533    0.2293696    71.900752 
   32900   -2228341.9    8435.9926   -2219905.9    604.29892   -46.342679     21052381   0.22985064    74.476265 
   33000   -2229162.7    8433.6156   -2220729.1    604.12865    28.745515     21016893   0.23023876     77.01504 
   33100   -2230024.7    8437.1158   -2221587.6    604.37938   -69.389659     20990236   0.23053116    79.576473 
   33200   -2230872.7    8436.9144   -2222435.8    604.36495   -73.023381     20957733   0.23088869    82.109603 
   33300     -2231650    8431.2797   -2223218.7    603.96132    122.53278     20925731   0.23124178    84.890084 
   33400   -2232320.6    8422.1645   -2223898.5    603.30837   -67.279455     20889588   0.23164187    88.021019 
   33500   -2232948.7     8417.989   -2224530.7    603.00926   -10.154295     20839075   0.23220337     90.94536 
   33600   -2233877.9    8443.8783     -2225434     604.8638   -17.764544     20778808   0.23287686    93.717407 
   33700   -2234833.8    8446.8316     -2226387    605.07535   -57.492358     20724507   0.23348703    96.362009 
   33800   -2235729.4    8442.0112   -2227287.4    604.73005   -15.321373     20693328   0.23383882    99.010064 
   33900   -2236515.3    8430.4004   -2228084.9    603.89833   -48.046541     20666564   0.23414165    101.63425 
   34000   -2237313.2    8431.4031   -2228881.8    603.97016     -49.1978     20646407   0.23437024    104.28095 
   34100   -2238141.2    8434.6346   -2229706.6    604.20164    5.0967104     20618217   0.23469068    106.89712 
   34200   -2238966.7    8433.6146   -2230533.1    604.12857   -138.94493     20588979   0.23502397    109.49557 
   34300   -2239732.3     8429.323     -2231303    603.82115   -21.279903     20563166   0.23531899     112.0662 
   34400   -2240481.4     8427.832   -2232053.6    603.71435    124.74813     20528539   0.23571592    114.68837 
   34500   -2241168.6    8422.8837   -2232745.7    603.35988   -48.217198     20496691   0.23608218    117.26145 
   34600   -2241997.1    8434.3763   -2233562.7    604.18314   -23.036782     20457477   0.23653471    119.77157 
   34700   -2242670.1    8422.2886   -2234247.8    603.31725   -31.082777     20429210   0.23686199    122.28005 
   34800   -2243493.3    8434.3582   -2235058.9    604.18184    60.943259     20389994   0.23731755    124.88251 
   34900   -2244334.2    8435.7055   -2235898.5    604.27835    -48.35688     20349360   0.23779143    127.43148 
   35000   -2245219.5    8440.0056   -2236779.5    604.58638   -95.600926     20313078   0.23821616    130.07803 
   35100   -2246029.2    8432.2975   -2237596.9    604.03422   -38.581285     20283427   0.23856439    132.62443 
   35200   -2246855.9    8433.4731   -2238422.5    604.11844   -77.106811     20255470   0.23889367    135.27178 
   35300     -2247611    8428.0223     -2239183    603.72798   -77.214664     20229599   0.23919918    137.90143 
   35400   -2248424.2    8434.0648   -2239990.1    604.16083   -247.48373     20207351   0.23946253    140.56664 
   35500   -2249201.8    8431.1023   -2240770.7    603.94861    46.457746     20169713   0.23990939    143.26066 
   35600   -2250008.3    8432.2675     -2241576    604.03208   -4.7131234     20143417   0.24022258     146.3242 
   35700   -2250752.1    8428.1233     -2242324    603.73521  -0.75874583     20133056   0.24034619     149.4334 
   35800   -2251314.6    8413.8564   -2242900.7    602.71323   -151.22939     20120051   0.24050155     152.3084 
   35900   -2251772.9    8403.2282   -2243369.6    601.95189   -22.575615     20089168   0.24087127    155.02409 
   36000   -2252296.3    8410.3132     -2243886    602.45941    89.814054     20056776   0.24126028    157.72032 
   36100     -2252810    8409.3979   -2244400.6    602.39385    70.979162     20011892    0.2418014    160.41697 
   36200   -2253375.9    8413.6719   -2244962.2    602.70001   -69.947458     19962561   0.24239892    163.12586 
   36300   -2254058.3    8424.1193   -2245634.2    603.44839   -90.019223     19917444   0.24294801    165.82581 
   36400   -2254800.6    8428.9557   -2246371.7    603.79484   -45.104968     19874086   0.24347803    168.52953 
   36500   -2255549.1    8429.2513   -2247119.9    603.81602    4.1927531     19843724   0.24385057    171.23605 
   36600   -2256254.7    8424.7946   -2247829.9    603.49677    19.691882     19816293   0.24418812    173.94916 
   36700   -2256945.4    8423.6393   -2248521.8    603.41401   -95.827334     19792124   0.24448631    176.64363 
   36800   -2257652.3    8423.7432   -2249228.5    603.42145    92.232476     19760612   0.24487619    179.32485 
   36900   -2258278.4    8417.5633   -2249860.8    602.97877   -92.498226     19744043   0.24508169    181.99116 
   37000   -2259111.1     8437.299   -2250673.8     604.3925   -97.969466     19712574   0.24547294    184.66691 
   37100   -2259728.6    8418.1372   -2251310.4    603.01988    112.26103     19687065   0.24579101    187.34106 
   37200   -2260377.1    8421.1328     -2251956    603.23446   -119.25454     19663330   0.24608769    189.98954 
   37300   -2260950.7    8413.6738     -2252537    602.70014   -126.18447     19627255      0.24654    192.61739 
   37400   -2261655.8     8424.318   -2253231.5    603.46263   -147.84948     19590819   0.24699852    195.22598 
   37500   -2262263.9    8416.1063   -2253847.8    602.87439   -95.974637     19551449   0.24749589    197.80291 
   37600   -2263019.1    8428.7996   -2254590.3    603.78366   -33.924763     19502581   0.24811606    200.38167 
   37700   -2263728.6     8426.682   -2255301.9    603.63197    27.229105     19468255   0.24855352    202.99245 
   37800   -2264468.2    8428.6195   -2256039.6    603.77076   -12.866921     19434963    0.2489793    206.14842 
   37900   -2265138.7    8421.4547   -2256717.2    603.25752    50.667823     19402254   0.24939904    209.37528 
   38000   -2265849.7    8425.6552     -2257424    603.55842   -55.117192     19371735   0.24979195    212.31036 
   38100   -2266634.8     8432.933   -2258201.8    604.07975   -78.523251     19330553    0.2503241    215.08847 
   38200     -2267453    8435.1057   -2259017.9    604.23539    -28.92885     19281366   0.25096269    217.85148 
   38300   -2268179.1    8426.0313   -2259753.1    603.58536   -74.219581     19245418   0.25143145    220.60904 
   38400   -2268976.1    8431.5764   -2260544.5    603.98257   -81.094258     19209979    0.2518953    223.32782 
   38500   -2269662.9    8421.6828   -2261241.2    603.27386    43.946008     19178718   0.25230588    226.02694 
   38600   -2270517.1    8436.4747   -2262080.6    604.33345    -9.794776     19144789   0.25275303    228.71732 
   38700   -2271301.6    8430.9273   -2262870.7    603.93608   -62.230331     19109628   0.25321808    231.41011 
   38800   -2272114.7    8433.8965   -2263680.8    604.14877     -159.392     19074468   0.25368484    234.12268 
   38900   -2272887.8    8430.4136   -2264457.3    603.89928   -67.171095     19034858   0.25421275     236.8506 
   39000   -2273627.5    8427.5377     -2265200    603.69327   -131.11599     18997797   0.25470866    239.58773 
   39100   -2274416.8    8432.9523   -2265983.8    604.08113   -67.807288     18955921   0.25527134    242.32247 
   39200   -2275277.1    8438.5569   -2266838.5    604.48261   -2.9297178     18913572   0.25584291     245.0516 
   39300   -2276144.7    8439.2525   -2267705.4    604.53243    13.586928     18882647   0.25626193    247.76137 
   39400   -2276969.7    8433.8984   -2268535.8     604.1489   -6.5620955     18848743   0.25672287    250.50093 
   39500   -2277888.2    8442.3902   -2269445.8     604.7572   -98.631456     18809882   0.25725326    253.25755 
   39600   -2278729.8    8436.0807   -2270293.7    604.30523   -16.105381     18782515   0.25762808    255.99477 
   39700   -2279518.7    8431.1573   -2271087.6    603.95255   -50.846628     18762251   0.25790633    258.72737 
   39800   -2280521.4    8450.1601   -2272071.2    605.31378   -61.832474     18736366   0.25826264    261.44016 
   39900     -2281455    8443.0752   -2273011.9    604.80627   -51.240132     18702145   0.25873521    264.24618 
   40000   -2282350.5    8439.8032   -2273910.7    604.57188   -58.675188     18670955   0.25916743    267.52502 
Loop time of 267.525 on 2 procs for 10000 steps with 108000 atoms

Performance: 3.230 ns/day, 7.431 hours/ns, 37.380 timesteps/s
99.3% CPU use with 2 MPI tasks x 1 OpenMP threads

MPI task timing breakdown:
Section |  min time  |  avg time  |  max time  |%varavg| %total
---------------------------------------------------------------
Pair    | 203.45     | 204.35     | 205.26     |   6.3 | 76.39
Neigh   | 32.755     | 32.912     | 33.069     |   2.7 | 12.30
Comm    | 6.5302     | 7.6641     | 8.798      |  41.0 |  2.86
Output  | 8.3328     | 8.3329     | 8.3329     |   0.0 |  3.11
Modify  | 12.881     | 12.977     | 13.072     |   2.6 |  4.85
Other   |            | 1.288      |            |       |  0.48

Nlocal:    54000 ave 54102 max 53898 min
Histogram: 1 0 0 0 0 0 0 0 0 1
Nghost:    19053 ave 19214 max 18892 min
Histogram: 1 0 0 0 0 0 0 0 0 1
Neighs:    2.46695e+06 ave 2.4906e+06 max 2.44329e+06 min
Histogram: 1 0 0 0 0 0 0 0 0 1

Total # of neighbors = 4933891
Ave neighs/atom = 45.6842
Neighbor list builds = 1000
Dangerous builds = 1000

unfix 				temp_rescale
unfix 				2



# ------------------------- STEP 3c: COOLING 600 - 400 -------------------------

print "******************** Decreasing temperature from 600 K to 400 K ********************"
******************** Decreasing temperature from 600 K to 400 K ********************

neighbor			0.5 bin
neigh_modify		every 10 delay 0 check yes

fix					3 all npt temp 400.0 400.0 0.1 iso 1 1 1 drag 0.2
fix					temp_rescale all temp/rescale 100 400 400 0.1 0.9

timestep 			0.001

run 				10000
Per MPI rank memory allocation (min/avg/max) = 43.81 | 44 | 44.19 Mbytes
Step PotEng KinEng TotEng Temp Press Volume Density CPU 
   40000   -2282350.5    8439.8032   -2273910.7    604.57188   -58.675188     18670955   0.25916743            0 
   40100   -2283560.7    5906.5514   -2277654.1    423.10642   -57.972179     18644060   0.25954129     3.087497 
   40200   -2285962.7    5779.7513   -2280182.9    414.02329   -93.118643     18599902   0.26015747     6.018805 
   40300     -2287678    5716.9753     -2281961    409.52644   -30.142555     18545903   0.26091495    8.8205519 
   40400   -2288908.8    5674.1255   -2283234.7    406.45696   -160.49234     18509994   0.26142112    11.628852 
   40500   -2289934.7    5657.6348     -2284277    405.27567    -103.6379     18475343   0.26191143    14.439024 
   40600   -2290744.5    5641.0614   -2285103.4    404.08847   -134.43953     18437157   0.26245388    17.256283 
   40700   -2291476.1    5634.3949   -2285841.7    403.61092   -64.406025     18391099   0.26311116    20.073358 
   40800     -2292291    5642.7491   -2286648.3    404.20936   -96.662442     18339001   0.26385862    22.893976 
   40900   -2292974.9    5632.9924   -2287341.9    403.51045   -128.21958     18295195   0.26449039     25.71708 
   41000   -2293683.8    5634.0976   -2288049.7    403.58963   -25.991986     18251767   0.26511972    28.543156 
   41100   -2294438.5    5639.3046   -2288799.2    403.96262   -53.899409     18200549    0.2658658    31.368379 
   41200     -2295451    5663.0071     -2289788    405.66051   -128.54495     18148226   0.26663232    34.190624 
   41300   -2296356.1    5652.6315   -2290703.4    404.91727   -21.972866     18099433   0.26735111     37.03421 
   41400     -2297185    5646.0538     -2291539    404.44609   -79.926741     18073474    0.2677351    39.876636 
   41500   -2297974.1    5641.2758   -2292332.8    404.10382    4.6985328     18030944   0.26836661    42.738019 
   41600   -2298840.9    5648.8305   -2293192.1    404.64499    -16.46896     17993607   0.26892348    45.595775 
   41700   -2299574.9    5637.4417   -2293937.4    403.82918    -48.72357     17952430   0.26954031    48.460848 
   41800   -2300395.7    5643.5512   -2294752.1    404.26682   -80.078239     17906774   0.27022753    51.326065 
   41900   -2301202.9    5642.4322   -2295560.4    404.18666   -105.88447     17870875   0.27077037    54.196735 
   42000   -2302073.1    5649.3163   -2296423.8    404.67979   -145.70863     17842173   0.27120594    57.219604 
   42100   -2302884.2    5643.9559   -2297240.2    404.29581   -58.509897     17808300    0.2717218    60.645674 
   42200   -2303783.1    5650.5189   -2298132.6    404.76594   -80.874551     17769051     0.272322    63.743305 
   42300   -2304639.1    5647.2077   -2298991.9    404.52875   -13.265748     17737253    0.2728102    66.647578 
   42400   -2305463.8     5644.255   -2299819.6    404.31723   -56.027791     17703936   0.27332359    69.527698 
   42500   -2306239.9     5641.372   -2300598.5    404.11071   -59.122817     17673566   0.27379327    72.424596 
   42600   -2306957.6    5636.5266   -2301321.1    403.76362   -87.800964     17652170   0.27412513    75.302601 
   42700     -2307605    5629.7096   -2301975.3    403.27529   -58.178095     17625432   0.27454097    78.195683 
   42800   -2308342.8    5638.0557   -2302704.8    403.87315   -47.786891     17590262    0.2750899    81.079115 
   42900   -2309159.8    5645.8679   -2303513.9    404.43277   -156.73586     17544680   0.27580459    83.920831 
   43000   -2309977.8    5644.8166     -2304333    404.35746    -130.5372     17498043    0.2765397    86.768647 
   43100   -2310719.7    5638.0989   -2305081.6    403.87625    -90.28372     17458478   0.27716639    89.688561 
   43200   -2311548.5    5644.1348   -2305904.4    404.30862      51.6679     17416324   0.27783724    92.597439 
   43300     -2312368    5644.1298   -2306723.9    404.30827   -148.65169     17380013   0.27841771    95.488761 
   43400   -2313289.5     5652.603   -2307636.9    404.91523   -114.33938     17335272   0.27913629    98.372131 
   43500   -2314223.4    5654.5636   -2308568.8    405.05567   -111.85528     17284715   0.27995275    101.19203 
   43600   -2315057.1    5644.5136   -2309412.6    404.33576   -42.141252     17240172   0.28067605    104.01936 
   43700   -2316119.8    5665.4473   -2310454.4    405.83531   -45.488567     17195904    0.2813986    106.86809 
   43800   -2317174.6    5664.4553   -2311510.2    405.76425   -95.621369     17161117   0.28196902    109.75113 
   43900   -2318167.8    5658.8594   -2312508.9    405.36339   -179.21417     17133342   0.28242612    112.63506 
   44000     -2319161    5659.4965   -2313501.5    405.40903   -45.002075     17108292   0.28283965    115.46958 
   44100   -2320209.1    5663.5145   -2314545.5    405.69686   -168.23536     17072872   0.28342644     118.8381 
   44200   -2321324.5    5669.7863   -2315654.7    406.14613   -86.617591     17031061   0.28412226    122.32984 
   44300   -2322319.8    5658.8939   -2316660.9    405.36587   -52.975855     17000698   0.28462969    125.49429 
   44400     -2323275    5656.1363   -2317618.9    405.16833   -100.12568     16972056   0.28511004    128.61926 
   44500   -2324164.2    5650.2161     -2318514    404.74425   -135.13426     16934608   0.28574051    131.67951 
   44600   -2325063.1    5649.9179   -2319413.1    404.72288   -105.60008     16892433    0.2864539    134.63351 
   44700     -2326024     5657.061   -2320366.9    405.23457   -105.99206     16843816   0.28728071    137.59552 
   44800   -2326915.7    5650.1292   -2321265.6    404.73802     68.11777     16789153   0.28821606    140.55927 
   44900   -2327848.6    5653.3065   -2322195.3    404.96562   -273.34291     16751460   0.28886457    143.53133 
   45000   -2328692.3     5646.344     -2323046    404.46687   -126.20957     16720073   0.28940683    146.50704 
   45100   -2329642.4    5656.1778   -2323986.2     405.1713   -153.76651     16685001   0.29001517    149.46372 
   45200   -2330548.5     5652.219   -2324896.3    404.88773   -130.36834     16648356   0.29065354    152.38624 
   45300     -2331406    5646.8478   -2325759.2    404.50297    30.521718     16611121   0.29130505    155.27881 
   45400     -2332446    5663.0202     -2326783    405.66145     -153.271     16571728   0.29199751    158.24992 
   45500   -2333474.1     5661.736   -2327812.3    405.56946     9.229726     16530556   0.29272478    161.17035 
   45600   -2334496.2    5660.1939     -2328836    405.45899   -143.57472     16501711   0.29323646    164.14197 
   45700   -2335517.2    5661.0589   -2329856.2    405.52095   -129.33406     16464418   0.29390067    167.12326 
   45800   -2336534.4    5660.9736   -2330873.4    405.51485   -113.86261     16424524   0.29461452    170.07569 
   45900   -2337573.6    5662.4371   -2331911.2    405.61968   -104.56149     16376429   0.29547976    173.08438 
   46000   -2338513.3     5654.526   -2332858.8    405.05298   -79.683047     16344973   0.29604841    176.01717 
   46100   -2339395.7    5649.9535   -2333745.7    404.72544   -133.62382     16315179   0.29658905     179.3742 
   46200   -2340280.3    5650.1872   -2334630.1    404.74218   -182.50365     16283973   0.29715742     182.7545 
   46300     -2341177    5650.9995     -2335526    404.80036   -134.37665     16248633   0.29780373    185.79454 
   46400   -2342080.4    5650.8545   -2336429.5    404.78998   -187.10934     16203826   0.29862722    188.70733 
   46500   -2342991.8     5651.393   -2337340.4    404.82855    -93.48049     16164847    0.2993473    191.60991 
   46600   -2343709.4    5634.6174   -2338074.8    403.62686   -84.340491     16132524   0.29994707    194.61675 
   46700   -2344568.2     5647.133   -2338921.1     404.5234   -163.43559     16095713   0.30063306    197.60857 
   46800   -2345437.8    5648.4322   -2339789.4    404.61646   -190.58831     16061335   0.30127655    200.50221 
   46900   -2346290.1    5646.7042   -2340643.4    404.49268   -46.449571     16015527   0.30213826    203.41541 
   47000   -2347153.8    5648.5682   -2341505.2    404.62621   -61.705416     15976422    0.3028778    206.34375 
   47100   -2348068.9     5651.696   -2342417.2    404.85026   -56.543808     15934857   0.30366783    209.38429 
   47200     -2348958    5649.9797     -2343308    404.72731   -135.39805     15895138   0.30442665    212.31519 
   47300   -2349876.3    5652.2121   -2344224.1    404.88723   -130.66214     15848635   0.30531989    215.22511 
   47400   -2350838.3    5655.9995   -2345182.3    405.15853   -7.4381431     15802802   0.30620541    218.28524 
   47500   -2351803.1    5656.0202   -2346147.1    405.16001   -190.94853     15763328   0.30697219    221.30298 
   47600   -2352888.4    5666.2296   -2347222.2    405.89135   -71.330208     15716003   0.30789656    224.22364 
   47700   -2354005.3    5669.6763   -2348335.6    406.13825   -171.51994     15675381   0.30869448    227.22953 
   47800   -2355059.8    5664.2389   -2349395.5    405.74875   -119.69589     15630029   0.30959018    230.30828 
   47900   -2356254.5     5675.589   -2350578.9     406.5618   -145.28382     15566937   0.31084493    233.31693 
   48000     -2357357     5666.882   -2351690.1    405.93808   -35.730898     15521178   0.31176136    236.38896 
   48100   -2358378.9    5660.3445   -2352718.5    405.46978   -88.896484     15494590   0.31229632    239.98582 
   48200   -2359467.9    5667.7314   -2353800.2    405.99893   -143.48624     15465745   0.31287878    243.32859 
   48300   -2360549.6    5665.9117   -2354883.7    405.86857   -185.52562     15428320   0.31363774    246.47071 
   48400   -2361477.6    5652.1295   -2355825.5    404.88131   -201.20755     15396918   0.31427741     249.5002 
   48500   -2362558.1     5665.692   -2356892.4    405.85284   -216.10108     15356607   0.31510239    252.56614 
   48600   -2363517.8    5654.6177   -2357863.2    405.05955   -211.89289     15303264   0.31620074    255.67985 
   48700   -2364670.8    5671.0122   -2358999.8    406.23394   -282.99859     15249795    0.3173094    258.70503 
   48800   -2365804.5    5669.4963     -2360135    406.12535    6.0414006     15202460   0.31829738    261.70713 
   48900   -2367021.5    5678.1421   -2361343.4    406.74468   -245.02669     15170361   0.31897088    264.74322 
   49000   -2368287.1     5682.541   -2362604.5    407.05979   -250.63126     15136884   0.31967632    267.88033 
   49100   -2369374.7    5666.4719   -2363708.3    405.90871   -172.09678     15114228    0.3201555    270.93336 
   49200   -2370238.4       5646.3   -2364592.1    404.46372   -109.00591     15092810   0.32060984    273.96208 
   49300   -2371270.7    5661.7118   -2365608.9    405.56773   -198.38979     15062981   0.32124474    277.01784 
   49400   -2372270.6    5657.7192   -2366612.9    405.28172   -214.81433     15023032   0.32209898    280.17015 
   49500   -2373251.6      5656.61     -2367595    405.20226    -55.41204     14980370   0.32301628    283.31309 
   49600   -2374168.5    5651.9215   -2368516.5    404.86641   -255.12066     14945207   0.32377628    286.46219 
   49700   -2375183.3    5660.8814   -2369522.4    405.50824    -146.6949     14900663   0.32474416     289.5022 
   49800   -2376221.9    5661.9014     -2370560     405.5813    104.06368     14852861    0.3257893    292.59009 
   49900   -2377282.2    5664.0595   -2371618.1     405.7359   -220.94079     14808800   0.32675865    295.73579 
   50000     -2378433    5671.4272   -2372761.6    406.26367   -168.83636     14767161      0.32768    299.35381 
Loop time of 299.354 on 2 procs for 10000 steps with 108000 atoms

Performance: 2.886 ns/day, 8.315 hours/ns, 33.405 timesteps/s
99.4% CPU use with 2 MPI tasks x 1 OpenMP threads

MPI task timing breakdown:
Section |  min time  |  avg time  |  max time  |%varavg| %total
---------------------------------------------------------------
Pair    | 230.24     | 230.37     | 230.5      |   0.9 | 76.96
Neigh   | 37.858     | 37.887     | 37.915     |   0.5 | 12.66
Comm    | 8.3697     | 8.5789     | 8.7881     |   7.1 |  2.87
Output  | 8.3094     | 8.3096     | 8.3099     |   0.0 |  2.78
Modify  | 12.894     | 12.956     | 13.018     |   1.7 |  4.33
Other   |            | 1.25       |            |       |  0.42

Nlocal:    54000 ave 54459 max 53541 min
Histogram: 1 0 0 0 0 0 0 0 0 1
Nghost:    20454 ave 20492 max 20416 min
Histogram: 1 0 0 0 0 0 0 0 0 1
Neighs:    2.81719e+06 ave 2.86015e+06 max 2.77422e+06 min
Histogram: 1 0 0 0 0 0 0 0 0 1

Total # of neighbors = 5634372
Ave neighs/atom = 52.1701
Neighbor list builds = 1000
Dangerous builds = 1000

unfix 				temp_rescale
unfix 				3



# ------------------------- STEP 3d: COOLING 400 - 300 -------------------------

print "******************** Decreasing temperature from 400 K to 300 K ********************"
******************** Decreasing temperature from 400 K to 300 K ********************

neighbor			0.5 bin
neigh_modify		every 10 delay 0 check yes

fix					4 all npt temp 300.0 300.0 0.1 iso 1 1 1 drag 0.2
fix					temp_rescale all temp/rescale 100 300 300 0.1 0.9

timestep 			0.001

run 				10000	# 10000 or 15000
Per MPI rank memory allocation (min/avg/max) = 45.35 | 45.54 | 45.73 Mbytes
Step PotEng KinEng TotEng Temp Press Volume Density CPU 
   50000     -2378433    5671.4272   -2372761.6    406.26367   -168.83636     14767161      0.32768            0 
   50100   -2379781.2    4414.0453   -2375367.1    316.19311    -257.6197     14732486   0.32845125     3.435627 
   50200   -2381692.4    4344.5807   -2377347.8    311.21713   -334.70753     14695932   0.32926822    6.6888821 
   50300   -2383209.4    4307.3263     -2378902    308.54847   -374.10591     14655598   0.33017441    9.9410121 
   50400   -2384434.3    4281.7425   -2380152.5    306.71582    -235.9286     14620235   0.33097302     13.14016 
   50500   -2385458.1    4264.7528   -2381193.3    305.49879   -269.07466     14582032   0.33184014    16.321916 
   50600   -2386416.2    4260.5679   -2382155.7    305.19901   -273.04166     14540512   0.33278769    19.432227 
   50700   -2387276.5    4251.9194   -2383024.5    304.57949   -154.66343     14486685   0.33402419    22.541566 
   50800   -2388231.2    4260.5233   -2383970.6    305.19581   -101.64895     14428874    0.3353625    25.586145 
   50900   -2389311.9    4273.1195   -2385038.8    306.09812   -166.86874     14369280   0.33675336    28.820834 
   51000   -2390440.4    4275.9207   -2386164.4    306.29878   -265.45274     14308269    0.3381893    32.057792 
   51100     -2391530    4273.3381   -2387256.7    306.11378   -186.39082     14259514   0.33934561    35.260845 
   51200   -2392678.9    4277.7333   -2388401.2    306.42862   -248.84173     14206611   0.34060927    38.408859 
   51300   -2393967.9     4290.356   -2389677.5    307.33283   -276.11903     14153141   0.34189608    41.536261 
   51400   -2395136.3    4279.4625   -2390856.9     306.5525   -178.63715     14107174   0.34301013    44.745389 
   51500   -2396204.6    4269.8718   -2391934.7    305.86548   -115.80852     14067283   0.34398279    47.898595 
   51600   -2397319.3    4274.1939   -2393045.1    306.17508   -150.44645     14020178    0.3451385    51.095596 
   51700   -2398453.7    4276.5152   -2394177.2    306.34137   -184.90685     13969371   0.34639379    54.431577 
   51800   -2399630.1    4279.1264     -2395351    306.52842   -184.21955     13903528   0.34803421    57.837193 
   51900     -2400721    4271.8836   -2396449.1    306.00959   -286.86218     13851945   0.34933026    61.686837 
   52000   -2401833.3    4273.3532     -2397560    306.11486   -179.46557     13798558   0.35068181    65.160646 
   52100   -2403052.5    4283.1517   -2398769.3    306.81676   -329.21425     13751108   0.35189189    68.423709 
   52200   -2404224.9    4278.4691   -2399946.4    306.48133   -214.77356     13704886   0.35307871    71.667874 
   52300   -2405624.8    4299.0801   -2401325.8    307.95777   -247.52555     13656554   0.35432828    74.974441 
   52400   -2406926.2    4290.9804   -2402635.2    307.37756   -227.11926     13602121   0.35574623    78.261996 
   52500   -2408374.4    4303.1791   -2404071.2     308.2514   -307.23389     13540383   0.35736828    81.442253 
   52600     -2409972    4315.4797   -2405656.5    309.13253   -265.57991     13477599   0.35903304    84.810621 
   52700   -2411423.7    4302.3498   -2407121.3    308.19199   -303.27583     13437451   0.36010575    88.137648 
   52800   -2412920.3    4306.7596   -2408613.6    308.50788   -321.28197     13393374   0.36129084    91.347239 
   52900   -2414419.8    4308.3493   -2410111.4    308.62175   -430.89185     13344000   0.36262765    94.754182 
   53000   -2415756.9    4293.4413   -2411463.5    307.55384   -172.32911     13287257   0.36417626    98.089197 
   53100   -2417018.1    4285.4379   -2412732.7    306.98053   -295.39826     13236318   0.36557776    101.46124 
   53200     -2418379     4294.648   -2414084.3    307.64029   -295.86692     13172288   0.36735481    104.80879 
   53300   -2419883.2    4307.0471   -2415576.1    308.52847   -284.07957     13119147   0.36884283    108.07793 
   53400   -2421297.4     4300.281   -2416997.1    308.04379   -310.14156     13075445   0.37007562    111.39524 
   53500   -2422503.7    4280.8512   -2418222.8    306.65197    -280.5095     13034450   0.37123956     114.8044 
   53600   -2423713.2    4281.7955   -2419431.4    306.71961   -356.60034     13003432   0.37212509    118.46046 
   53700   -2424878.4    4277.3827     -2420601    306.40351   -155.19418     12952922   0.37357621    122.46311 
   53800   -2425979.5    4273.4401   -2421706.1    306.12109   -265.75798     12911388   0.37477795    125.92447 
   53900   -2427127.2    4277.0338   -2422850.2    306.37851   -258.01734     12856700    0.3763721    129.35786 
   54000   -2428322.7    4280.5369   -2424042.2    306.62945   -277.96404     12791554   0.37828893    132.79256 
   54100   -2429615.8    4288.7745     -2425327    307.21954   -176.11459     12735120   0.37996528    136.19653 
   54200     -2430986    4294.8614   -2426691.1    307.65557   -203.43014     12686989   0.38140675    139.58417 
   54300   -2432512.9    4311.1315   -2428201.8    308.82105   -315.97436     12641864   0.38276818    142.91806 
   54400   -2434143.4    4318.4161     -2429825    309.34287   -413.81421     12579167   0.38467599    146.21065 
   54500     -2435718     4312.359   -2431405.6    308.90898   -227.62662     12526551   0.38629176    149.63872 
   54600   -2437438.6    4326.2941   -2433112.3     309.9072   -189.52783     12482114   0.38766699    152.98035 
   54700   -2438879.4    4302.1481   -2434577.2    308.17754   -280.73557     12447490    0.3887453    156.30216 
   54800   -2440229.7     4293.187   -2435936.5    307.53563   -318.70687     12406037   0.39004426    159.79327 
   54900   -2441742.9    4307.3103   -2437435.6    308.54733   -291.73222     12357551   0.39157462    163.23945 
   55000     -2443251    4308.3493   -2438942.6    308.62175   -290.52798     12312252   0.39301531    166.64212 
   55100     -2444723    4304.0208     -2440419    308.31169   -207.16053     12264527   0.39454463    170.17662 
   55200   -2446292.4    4312.8421   -2441979.6    308.94358   -279.56333     12208554   0.39635354    173.69146 
   55300   -2447968.8     4321.935   -2443646.8    309.59494   -265.55381     12141642   0.39853781    177.29802 
   55400   -2449374.6    4299.2973   -2445075.3    307.97333   -304.97063     12091206   0.40020023    181.44381 
   55500   -2450746.7    4295.1426   -2446451.5    307.67571   -201.47466     12046919   0.40167146    185.20835 
   55600   -2452225.2    4304.3419   -2447920.8    308.33469   -312.87495     11997675   0.40332009    188.84438 
   55700   -2453584.4    4293.9391   -2449290.5     307.5895   -189.04337     11937874   0.40534046    192.34604 
   55800   -2455173.7    4315.1897   -2450858.5    309.11176   -367.16556     11876601   0.40743168    195.94158 
   55900   -2456950.5    4330.7478   -2452619.8    310.22624   -339.21999     11812412   0.40964566    199.55894 
   56000   -2458564.3    4316.6032   -2454247.7      309.213   -360.77626     11760174   0.41146528    203.14436 
   56100     -2460381     4333.897   -2456047.1    310.45182   -372.02087     11698887   0.41362083    206.61446 
   56200   -2462282.2    4341.0345   -2457941.2     310.9631   -534.56568     11633503   0.41594551    210.22891 
   56300     -2464019    4325.9373     -2459693    309.88164   -289.92377     11580137   0.41786236    213.75871 
   56400   -2465777.8    4328.2399   -2461449.5    310.04658   -423.45136     11538243   0.41937957      217.274 
   56500   -2467475.7    4323.0197   -2463152.7    309.67264   -418.54854     11493212   0.42102271    220.92561 
   56600   -2469125.7    4318.2115   -2464807.5    309.32822   -421.06611     11446250   0.42275011    224.54803 
   56700   -2470625.8    4306.2466   -2466319.6    308.47113   -406.29605     11398039   0.42453824    228.11166 
   56800   -2472438.1    4331.9217   -2468106.1    310.31033   -444.71743     11336864    0.4268291    231.76076 
   56900   -2474182.7    4327.9641   -2469854.7    310.02683    -440.9992     11287201   0.42870712    235.37764 
   57000   -2475948.6    4329.5155   -2471619.1    310.13796   -356.61174     11237824   0.43059077     239.4534 
   57100   -2477589.8    4318.4844   -2473271.4    309.34776   -392.59279     11184039   0.43266152    243.62184 
   57200   -2479467.5    4338.0165   -2475129.5    310.74691    -448.8465     11116761   0.43527997    247.41444 
   57300   -2481359.2    4339.3423   -2477019.8    310.84189    -387.4176     11050132   0.43790459    251.06818 
   57400   -2483269.4    4341.1209   -2478928.3    310.96929   -543.34863     10998268   0.43996957    254.65772 
   57500   -2485192.5    4342.0397   -2480850.4    311.03511   -550.68168     10942626    0.4422068     258.2834 
   57600   -2487173.7    4346.7951   -2482826.9    311.37575   -404.24087     10879399   0.44477673    261.88169 
   57700   -2489200.4    4352.4995   -2484847.9    311.78438   -456.34691     10828715   0.44685852    265.62801 
   57800   -2491426.9     4369.013   -2487057.9     312.9673    -573.5291     10759068   0.44975117    269.32171 
   57900   -2493546.6    4359.0672   -2489187.6    312.25485   -573.87287     10702007   0.45214915    273.12443 
   58000   -2495417.7    4338.1815   -2491079.5    310.75873   -514.44854     10667311   0.45361981    276.78482 
   58100   -2497037.9    4314.2019   -2492723.7    309.04099   -362.48069     10626267    0.4553719     280.5304 
   58200   -2498668.2    4315.7597   -2494352.4    309.15259   -392.98044     10582019   0.45727601    284.21088 
   58300   -2500319.2    4319.0634   -2496000.1    309.38924   -508.42378     10525173   0.45974573    287.90253 
   58400   -2501979.1    4319.0227   -2497660.1    309.38633   -587.70273     10460936   0.46256886     291.7556 
   58500   -2503775.3    4330.8923   -2499444.4    310.23659   -592.63885     10395917   0.46546193    295.60454 
   58600   -2505669.5    4338.9582   -2501330.5    310.81437   -390.97374     10334056   0.46824824    299.97012 
   58700   -2507797.9    4361.0554   -2503436.9    312.39727   -729.06583     10266982   0.47130727    304.16936 
   58800   -2509949.5    4360.2718   -2505589.2    312.34114   -465.96737     10195742    0.4746004    308.06238 
   58900   -2512353.8    4383.6445   -2507970.2     314.0154   -653.21604     10130626   0.47765097    311.85515 
   59000   -2514723.6    4379.4386   -2510344.1    313.71412   -629.03677     10064523   0.48078815     315.7813 
   59100   -2516832.1    4356.4598   -2512475.6    312.06808   -437.69172     10017033   0.48306754    319.64099 
   59200   -2519113.2    4372.3595   -2514740.9    313.20702   -631.55355    9969718.6   0.48536008    323.43487 
   59300   -2521265.2     4360.624   -2516904.5    312.36637   -397.78417    9913769.6   0.48809924    327.19425 
   59400   -2523576.9    4373.5924   -2519203.3    313.29534   -568.30184    9854320.8   0.49104383    331.16405 
   59500   -2525959.1    4380.6713   -2521578.4    313.80242   -722.36255    9788611.3   0.49434013    335.09998 
   59600   -2528374.4    4384.1979   -2523990.2    314.05505   -563.90338    9725099.5   0.49756852    338.91709 
   59700     -2530527    4360.9418     -2526166    312.38913   -547.92274    9667912.5   0.50051171    342.75544 
   59800   -2532567.8    4350.8118     -2528217    311.66349   -501.42354    9613004.2   0.50337057    346.77617 
   59900   -2534611.4    4351.4369     -2530260    311.70827   -634.31797    9560078.3    0.5061573    350.81858 
   60000   -2536727.3    4357.5315   -2532369.8    312.14484   -719.35271    9497707.5    0.5094812    354.86965 
Loop time of 354.87 on 2 procs for 10000 steps with 108000 atoms

Performance: 2.435 ns/day, 9.857 hours/ns, 28.179 timesteps/s
99.5% CPU use with 2 MPI tasks x 1 OpenMP threads

MPI task timing breakdown:
Section |  min time  |  avg time  |  max time  |%varavg| %total
---------------------------------------------------------------
Pair    | 265.9      | 273.4      | 280.89     |  45.3 | 77.04
Neigh   | 46.05      | 47.377     | 48.704     |  19.3 | 13.35
Comm    | 2.9893     | 11.871     | 20.753     | 257.8 |  3.35
Output  | 8.2846     | 8.2851     | 8.2856     |   0.0 |  2.33
Modify  | 12.728     | 12.79      | 12.852     |   1.7 |  3.60
Other   |            | 1.149      |            |       |  0.32

Nlocal:    54000 ave 54956 max 53044 min
Histogram: 1 0 0 0 0 0 0 0 0 1
Nghost:    23965.5 ave 24384 max 23547 min
Histogram: 1 0 0 0 0 0 0 0 0 1
Neighs:    3.49445e+06 ave 3.61739e+06 max 3.37152e+06 min
Histogram: 1 0 0 0 0 0 0 0 0 1

Total # of neighbors = 6988908
Ave neighs/atom = 64.7121
Neighbor list builds = 1000
Dangerous builds = 1000

unfix				temp_rescale
unfix 				4



# ------------------------- STEP 4: EQUILIBRATION 2 -------------------------

print "******************** Equilibration at 300 K ********************"
******************** Equilibration at 300 K ********************

fix					equilibration2 all nve
fix					temp_rescale all temp/rescale 100 300 300 0.1 0.9

timestep 			0.001

run					10000
Per MPI rank memory allocation (min/avg/max) = 47.68 | 48.06 | 48.45 Mbytes
Step PotEng KinEng TotEng Temp Press Volume Density CPU 
   60000   -2536727.3    4357.5315   -2532369.8    312.14484   -719.35271    9497707.5    0.5094812            0 
   60100     -2538750    4398.0738   -2534351.9    315.04902   -316.88802    9497707.5    0.5094812    4.2517881 
   60200   -2540624.1    4386.9813   -2536237.2    314.25443     21.03048    9497707.5    0.5094812     8.647784 
   60300   -2542486.4    4386.8228   -2538099.6    314.24307   -450.14298    9497707.5    0.5094812    12.649811 
   60400   -2544657.8    4415.8977   -2540241.9    316.32581   -155.00012    9497707.5    0.5094812     16.47076 
   60500   -2546820.5         4418   -2542402.5     316.4764    -239.6551    9497707.5    0.5094812    20.410095 
   60600   -2549049.5    4424.4585     -2544625    316.93905    -244.6709    9497707.5    0.5094812    24.272291 
   60700   -2550906.9    4389.2659   -2546517.6    314.41809   -358.27813    9497707.5    0.5094812     28.06709 
   60800   -2552909.2    4400.3893   -2548508.8    315.21489   -333.93257    9497707.5    0.5094812    31.864227 
   60900   -2554956.1    4405.1173     -2550551    315.55358   -533.24018    9497707.5    0.5094812    35.725725 
   61000   -2557114.6    4416.9256   -2552697.7    316.39945   -623.44167    9497707.5    0.5094812     39.58696 
   61100   -2558946.7    4385.4706   -2554561.2    314.14621    112.60491    9497707.5    0.5094812    43.439774 
   61200   -2560848.3    4390.5579   -2556457.7    314.51063   -653.95245    9497707.5    0.5094812    47.384584 
   61300     -2562876    4402.2873   -2558473.7    315.35085   -366.08439    9497707.5    0.5094812    51.285096 
   61400   -2564894.7    4402.9955   -2560491.7    315.40158   -680.18422    9497707.5    0.5094812    55.134094 
   61500   -2566882.2    4399.7294   -2562482.4    315.16762   -297.63316    9497707.5    0.5094812    59.058906 
   61600   -2568782.4    4390.8478   -2564391.6    314.53141   -213.55771    9497707.5    0.5094812    63.265687 
   61700   -2570616.6     4384.144   -2566232.5    314.05119   -55.806711    9497707.5    0.5094812    67.784649 
   61800   -2572472.9    4385.9247     -2568087    314.17874   -351.69437    9497707.5    0.5094812    71.986805 
   61900   -2574388.1    4391.3857   -2569996.8    314.56993   -399.27912    9497707.5    0.5094812    76.084345 
   62000   -2576155.4    4376.6453   -2571778.8    313.51403   -78.183788    9497707.5    0.5094812    80.078556 
   62100   -2577950.3    4379.1127   -2573571.2    313.69078   -202.68828    9497707.5    0.5094812    84.033488 
   62200   -2579519.3    4356.1086   -2575163.2    312.04291    58.275224    9497707.5    0.5094812    88.009646 
   62300   -2581198.9     4365.849     -2576833    312.74065    -507.9259    9497707.5    0.5094812    91.998011 
   62400   -2582971.4     4375.504   -2578595.9    313.43228    -761.3203    9497707.5    0.5094812    96.039037 
   62500   -2584789.1     4379.763   -2580409.3    313.73736   -369.92995    9497707.5    0.5094812    99.971935 
   62600   -2586656.1    4384.8418   -2582271.3    314.10117   -245.71466    9497707.5    0.5094812    103.91988 
   62700   -2588462.4    4380.6062   -2584081.8    313.79776   -675.43256    9497707.5    0.5094812    107.87808 
   62800   -2590447.2    4397.1284     -2586050     314.9813   -857.23382    9497707.5    0.5094812    111.92928 
   62900   -2592553.6    4410.6958   -2588142.9    315.95318   -702.99832    9497707.5    0.5094812    116.06899 
   63000   -2594511.2    4397.9163   -2590113.3    315.03775   -768.68472    9497707.5    0.5094812    120.13192 
   63100   -2596496.3    4398.8886   -2592097.4    315.10739    -426.5248    9497707.5    0.5094812    124.57818 
   63200     -2598483    4399.0573     -2594084    315.11947   -373.75183    9497707.5    0.5094812    129.26767 
   63300   -2600258.5    4377.2892   -2595881.2    313.56016    116.86952    9497707.5    0.5094812    133.46211 
   63400   -2602120.1    4386.2343   -2597733.9    314.20092   -494.50184    9497707.5    0.5094812    137.67793 
   63500   -2603870.9     4374.481   -2599496.5    313.35899   -406.74093    9497707.5    0.5094812    141.92764 
   63600   -2605470.9    4360.1236   -2601110.8    312.33052   -449.91061    9497707.5    0.5094812     146.1527 
   63700   -2607115.9    4362.0734   -2602753.9    312.47019   -116.15677    9497707.5    0.5094812    150.30912 
   63800   -2608743.3      4361.79   -2604381.5    312.44989   -485.66429    9497707.5    0.5094812    154.37696 
   63900   -2610487.1    4371.1634   -2606115.9    313.12134    175.42074    9497707.5    0.5094812    158.47888 
   64000   -2612072.1    4359.0101   -2607713.1    312.25076   -670.66898    9497707.5    0.5094812    162.62363 
   64100     -2613696    4360.0614   -2609335.9    312.32607   -387.26215    9497707.5    0.5094812    166.95686 
   64200   -2615153.2    4344.4577   -2610808.7    311.20832   -396.50174    9497707.5    0.5094812    171.24522 
   64300   -2616807.3    4361.5897   -2612445.7    312.43554   -431.83513    9497707.5    0.5094812    175.52474 
   64400   -2618454.6    4362.4211   -2614092.2     312.4951   -242.77061    9497707.5    0.5094812    179.68947 
   64500   -2620063.2    4359.4042   -2615703.8    312.27899   -284.36049    9497707.5    0.5094812    184.36781 
   64600   -2621630.7    4355.0058   -2617275.7    311.96392   -292.52475    9497707.5    0.5094812    189.02381 
   64700   -2623146.8    4350.3933   -2618796.4    311.63351   -231.70042    9497707.5    0.5094812     193.3262 
   64800   -2624523.7    4336.2084   -2620187.5     310.6174   -257.04698    9497707.5    0.5094812    197.65091 
   64900     -2625912    4335.7259   -2621576.3    310.58283   -204.84248    9497707.5    0.5094812    201.81083 
   65000   -2627336.4    4339.5563   -2622996.8    310.85721   -475.21454    9497707.5    0.5094812    206.01699 
   65100   -2628766.2    4340.4098   -2624425.7    310.91835   -318.41801    9497707.5    0.5094812    210.31828 
   65200   -2630201.8    4340.8408     -2625861    310.94923   -131.16229    9497707.5    0.5094812    214.69708 
   65300     -2631489    4327.1888   -2627161.8    309.97129   -422.67562    9497707.5    0.5094812     218.9271 
   65400   -2632661.6    4314.0408   -2628347.5    309.02945   -35.687876    9497707.5    0.5094812    223.13516 
   65500   -2633739.2    4304.4759   -2629434.8    308.34429   -287.63111    9497707.5    0.5094812    227.40542 
   65600   -2634848.1    4305.9297   -2630542.2    308.44843   -18.946379    9497707.5    0.5094812    231.72961 
   65700   -2635994.9    4310.0149   -2631684.8    308.74106   -568.16753    9497707.5    0.5094812    236.06954 
   65800   -2637214.1    4315.9342   -2632898.1    309.16508   -93.904797    9497707.5    0.5094812    240.39329 
   65900   -2638443.2    4318.0608   -2634125.1    309.31742   -455.00202    9497707.5    0.5094812    245.31418 
   66000   -2639819.3    4331.7203   -2635487.6     310.2959    -231.6391    9497707.5    0.5094812    250.04258 
   66100   -2641062.5    4321.2542   -2636741.2    309.54618    63.180668    9497707.5    0.5094812    254.35538 
   66200   -2642306.3    4320.7843   -2637985.5    309.51251   -563.68764    9497707.5    0.5094812    258.81032 
   66300   -2643616.4    4326.4366     -2639290    309.91741   -58.391455    9497707.5    0.5094812    263.02467 
   66400   -2644807.6    4314.6981   -2640492.9    309.07654    30.020052    9497707.5    0.5094812    267.47759 
   66500   -2645990.2    4314.3364   -2641675.8    309.05063   -120.86177    9497707.5    0.5094812    271.92362 
   66600   -2647252.1    4322.0534   -2642930.1    309.60343   -218.70381    9497707.5    0.5094812    276.42037 
   66700   -2648354.1    4307.0006   -2644047.1    308.52514   -68.250798    9497707.5    0.5094812    280.84461 
   66800   -2649307.2    4291.3227   -2645015.9    307.40208   -256.95488    9497707.5    0.5094812    285.28503 
   66900     -2650318    4294.8643   -2646023.1    307.65578   -120.97615    9497707.5    0.5094812     289.6121 
   67000     -2651180    4281.8477   -2646898.2    306.72335   -387.60207    9497707.5    0.5094812    293.86596 
   67100   -2652025.6      4278.34   -2647747.2    306.47208   -249.77167    9497707.5    0.5094812    298.09628 
   67200   -2652878.9    4278.8875     -2648600    306.51131    -137.4595    9497707.5    0.5094812    302.59828 
   67300   -2653733.3    4279.5399   -2649453.8    306.55803   -333.65589    9497707.5    0.5094812    307.66467 
   67400   -2654504.6    4270.9911   -2650233.6    305.94566   -884.74904    9497707.5    0.5094812    312.16311 
   67500   -2655400.9    4280.6167   -2651120.3    306.63517   -106.27231    9497707.5    0.5094812    316.62508 
   67600   -2656486.5    4300.7785   -2652185.8    308.07943    -246.9078    9497707.5    0.5094812    321.03007 
   67700     -2657490    4294.2036   -2653195.8    307.60845    265.57152    9497707.5    0.5094812    325.49239 
   67800   -2658422.5    4288.4254     -2654134    307.19453   -237.12689    9497707.5    0.5094812    329.90037 
   67900   -2659293.9    4281.7155   -2655012.2    306.71388   -423.53089    9497707.5    0.5094812    334.37268 
   68000   -2660248.6    4288.5312     -2655960    307.20212   -317.01418    9497707.5    0.5094812    338.88289 
   68100   -2661340.3    4302.8724   -2657037.5    308.22942    -492.8841    9497707.5    0.5094812    343.33357 
   68200     -2662406    4301.2516   -2658104.7    308.11332   -401.61813    9497707.5    0.5094812    347.76449 
   68300   -2663617.4    4314.4011     -2659303    309.05527    -300.0201    9497707.5    0.5094812    352.15793 
   68400   -2664791.3    4312.5358   -2660478.8    308.92165   -417.63004    9497707.5    0.5094812    356.53089 
   68500   -2665972.7    4313.4665   -2661659.2    308.98831    -371.3195    9497707.5    0.5094812    360.93252 
   68600   -2667119.4    4309.5632   -2662809.8    308.70871   -90.982567    9497707.5    0.5094812    365.96118 
   68700   -2668252.4    4308.2076   -2663944.2    308.61161    -7.429083    9497707.5    0.5094812    370.68336 
   68800     -2669393    4309.1047   -2665083.9    308.67587   -348.34877    9497707.5    0.5094812    375.15841 
   68900   -2670332.4    4289.9071   -2666042.5    307.30068    -207.4248    9497707.5    0.5094812    379.58725 
   69000   -2671337.1    4294.7912   -2667042.3    307.65054   -648.77002    9497707.5    0.5094812    384.01099 
   69100   -2672543.3    4314.2671     -2668229    309.04566   -523.29014    9497707.5    0.5094812    388.45033 
   69200   -2673767.3    4317.1205   -2669450.2    309.25007   -232.69731    9497707.5    0.5094812     392.8934 
   69300   -2674885.6    4307.4404   -2670578.2    308.55665   -75.939907    9497707.5    0.5094812    397.46704 
   69400   -2675962.6    4303.8247   -2671658.8    308.29764   -573.25545    9497707.5    0.5094812     401.8907 
   69500   -2677045.6    4303.1115   -2672742.5    308.24655   -478.79577    9497707.5    0.5094812    406.43299 
   69600   -2677967.7    4287.1972   -2673680.5    307.10656   -102.14785    9497707.5    0.5094812    410.94514 
   69700   -2678929.7    4290.1148   -2674639.6    307.31555   -481.56902    9497707.5    0.5094812    415.47626 
   69800   -2679771.5    4278.2566   -2675493.2    306.46611   -120.57032    9497707.5    0.5094812    419.97111 
   69900   -2680737.5    4290.2795   -2676447.2    307.32735   -459.04577    9497707.5    0.5094812    424.88293 
   70000   -2681632.8    4283.4028   -2677349.4    306.83475   -16.844865    9497707.5    0.5094812    429.84223 
Loop time of 429.842 on 2 procs for 10000 steps with 108000 atoms

Performance: 2.010 ns/day, 11.940 hours/ns, 23.264 timesteps/s
99.5% CPU use with 2 MPI tasks x 1 OpenMP threads

MPI task timing breakdown:
Section |  min time  |  avg time  |  max time  |%varavg| %total
---------------------------------------------------------------
Pair    | 332.32     | 340.45     | 348.59     |  44.1 | 79.20
Neigh   | 60.853     | 62.098     | 63.343     |  15.8 | 14.45
Comm    | 4.2616     | 13.72      | 23.179     | 255.4 |  3.19
Output  | 8.286      | 8.2866     | 8.2871     |   0.0 |  1.93
Modify  | 3.9058     | 4.0065     | 4.1071     |   5.0 |  0.93
Other   |            | 1.28       |            |       |  0.30

Nlocal:    54000 ave 54841 max 53159 min
Histogram: 1 0 0 0 0 0 0 0 0 1
Nghost:    23960.5 ave 24465 max 23456 min
Histogram: 1 0 0 0 0 0 0 0 0 1
Neighs:    4.14599e+06 ave 4.21504e+06 max 4.07694e+06 min
Histogram: 1 0 0 0 0 0 0 0 0 1

Total # of neighbors = 8291975
Ave neighs/atom = 76.7775
Neighbor list builds = 1000
Dangerous builds = 1000

unfix				temp_rescale
unfix				equilibration2



# ------------------------- STEP 5: INSTANTANEOUS EXPANSION/CONTRACTION -------------------------

# print "******************** Instantaneous contraction to required density ********************"
# timestep			0.0005
# fix					inst2 all nvt temp 300 300 0.05
# fix					inst1 all deform 1 x scale 0.79 y scale 0.79 z scale 0.79
# run					1000
# unfix				inst1
# unfix				inst2



# ------------------------- STEP 6: EQUILIBRATION 3 -------------------------

# print "******************** Equilibration at 300 K ********************"

# fix					equilibration3 all nve
# fix					temp_rescale all temp/rescale 100 300 300 0.1 0.9

# timestep 			0.001

# run					10000

# unfix				temp_rescale
# unfix				equilibration3



# ------------------------- STEP 7: MINIMIZATION -------------------------

print "******************** Energy minimization ********************"
******************** Energy minimization ********************

minimize 			0.01 0 1000 1000	# What does the last 1000 refer to?
WARNING: Using 'neigh_modify every 1 delay 0 check yes' setting during minimization (../min.cpp:168)
Per MPI rank memory allocation (min/avg/max) = 55.98 | 56.18 | 56.37 Mbytes
Step PotEng KinEng TotEng Temp Press Volume Density CPU 
   70000   -2681632.8    4283.4028   -2677349.4    306.83475   -16.844865    9497707.5    0.5094812            0 
   70001     -2683907    4283.4028   -2679623.6    306.83475   -2106.8635    9497707.5    0.5094812   0.23099279 
Loop time of 0.231004 on 2 procs for 1 steps with 108000 atoms

99.3% CPU use with 2 MPI tasks x 1 OpenMP threads

Minimization stats:
  Stopping criterion = energy tolerance
  Energy initial, next-to-last, final = 
        -2681632.77692     -2681632.77692     -2683906.98238
  Force two-norm initial, final = 1093.77 569.268
  Force max component initial, final = 28.9462 18.5354
  Final line search alpha, max atom move = 0.00345468 0.0640338
  Iterations, force evaluations = 1 1

MPI task timing breakdown:
Section |  min time  |  avg time  |  max time  |%varavg| %total
---------------------------------------------------------------
Pair    | 0.13747    | 0.14064    | 0.14381    |   0.8 | 60.88
Neigh   | 0          | 0          | 0          |   0.0 |  0.00
Comm    | 0.00048709 | 0.0036535  | 0.00682    |   5.2 |  1.58
Output  | 0          | 0          | 0          |   0.0 |  0.00
Modify  | 0          | 0          | 0          |   0.0 |  0.00
Other   |            | 0.08671    |            |       | 37.54

Nlocal:    54000 ave 54841 max 53159 min
Histogram: 1 0 0 0 0 0 0 0 0 1
Nghost:    23960.5 ave 24465 max 23456 min
Histogram: 1 0 0 0 0 0 0 0 0 1
Neighs:    4.14599e+06 ave 4.21504e+06 max 4.07694e+06 min
Histogram: 1 0 0 0 0 0 0 0 0 1

Total # of neighbors = 8291975
Ave neighs/atom = 76.7775
Neighbor list builds = 0
Dangerous builds = 0
min_style			cg



# ------------------------- SIMULATION DONE -------------------------

print "******************** End ********************"
******************** End ********************
Total wall time: 0:27:25
1
