LAMMPS (12 Dec 2018)
  using 1 OpenMP thread(s) per MPI task
# Input file for Aluminium crystal

# Run command:  lmp -in in.aluminium



# ------------------------- ATOM INITIALIZATION -------------------------

units 			metal
dimension		3
boundary		p	p	p
atom_style		atomic

print "******************** Model initialized ********************"
******************** Model initialized ********************



# ------------------------- ATOM DEFINITION -------------------------

lattice			fcc 4.05
Lattice spacing in x,y,z = 4.05 4.05 4.05
region			whole block 0 30 0 30 0 30
region			crystal block 0 30 0 30 0 30
create_box		1 whole
Created orthogonal box = (0 0 0) to (121.5 121.5 121.5)
  1 by 1 by 2 MPI processor grid
create_atoms	1 region crystal
Created 108000 atoms
  Time spent = 0.00893211 secs

print "******************** Atoms generated ********************"
******************** Atoms generated ********************



# ------------------------- FORCE FIELDS / POTENTIAL -------------------------

pair_style		lj/cut 2.5
pair_coeff		* * .3920 2.62 2.5

# pair_style		eam/alloy
# pair_coeff		* * Al_Zhou04.eam.alloy Al

print "******************** Force field set ********************"
******************** Force field set ********************



# ------------------------- SETTINGS -------------------------

mass				1 26.982

thermo_style		custom step pe ke etotal temp press vol density cpu
thermo				100

dump			 	1 all custom 100 dump_loc_atom-108000_ts-8000 id type x y z

reset_timestep		0



# ------------------------- STEP 1: EQUILIBRATION -------------------------

print "******************** Equilibration at 300 K ********************"
******************** Equilibration at 300 K ********************

velocity 			all create 300.0 199 mom yes rot no dist gaussian

fix					equilibration all npt temp 300 300 0.1 iso 1 1 1 drag 0.2

timestep 			0.001

run					10000
Neighbor list info ...
  update every 1 steps, delay 10 steps, check yes
  max neighbors/atom: 2000, page size: 100000
  master list distance cutoff = 4.5
  ghost atom cutoff = 4.5
  binsize = 2.25, bins = 54 54 54
  1 neighbor lists, perpetual/occasional/extra = 1 0 0
  (1) pair lj/cut, perpetual
      attributes: half, newton on
      pair build: half/bin/atomonly/newton
      stencil: half/bin/3d/newton
      bin: standard
Per MPI rank memory allocation (min/avg/max) = 22.02 | 22.02 | 22.02 Mbytes
Step PotEng KinEng TotEng Temp Press Volume Density CPU 
       0            0    4187.9899    4187.9899          300    2493.9968    1793613.4     2.697852            0 
     100    2188.8055    4292.4312    6481.2367    307.48149    21401.856    1839247.7    2.6309145   0.47698879 
     200    2272.8742    4699.5345    6972.4087    336.64368    21692.344    1895852.8    2.5523624    1.0138578 
     300    2246.3583    5006.6053    7252.9636    358.64021    21019.729    1950384.9    2.4809993    1.5804229 
     400    2269.0434    5207.6821    7476.7255    373.04403    20707.577    2004706.9     2.413771    2.1210589 
     500    2248.7705    5326.4164    7575.1869    381.54937    20066.923    2058866.4    2.3502756    2.6243439 
     600    2176.0029    5422.9751     7598.978     388.4662    19047.828      2113343    2.2896915    3.1257188 
     700    2107.9229    5477.3003    7585.2232     392.3577    18092.591    2168041.4    2.2319239    3.6284399 
     800    2052.9854    5505.3927     7558.378    394.37005    17277.335    2222645.7    2.1770917    4.1298509 
     900    1921.5817    5510.1002    7431.6819    394.70727    15942.584    2277178.5    2.1249557     4.658356 
    1000    1837.1773    5489.3014    7326.4787    393.21738    14994.573    2331324.2     2.075603     5.307431 
    1100    1734.6828    5482.4141    7217.0969    392.72402    13972.484    2384987.4     2.028901    5.7986228 
    1200    1682.0049    5465.1325    7147.1374    391.48608    13320.334    2438466.7    1.9844041    6.2924609 
    1300    1622.3484    5428.5232    7050.8716    388.86363    12627.599    2491562.8    1.9421158    6.7806728 
    1400    1553.9662    5405.5176    6959.4838    387.21566    11947.432    2544216.8    1.9019226    7.2657208 
    1500    1487.4405    5378.9878    6866.4282    385.31524    11289.559    2596733.8    1.8634576    7.7217619 
    1600    1320.0909    5340.1678    6660.2587    382.53443    10055.928    2648896.3    1.8267621    8.2075899 
    1700    1333.0768    5287.7546    6620.8314     378.7799    9911.8281    2700771.6    1.7916744     8.690959 
    1800    1274.3308    5259.8447    6534.1756    376.78062    9382.5366    2752688.8    1.7578825     9.173156 
    1900    1230.9637    5220.9161    6451.8799    373.99203    8949.2424    2804421.4    1.7254552    9.6506169 
    2000    1150.2219     5190.605    6340.8269    371.82074    8324.6361    2856100.8    1.6942341    10.126259 
    2100    1087.2805    5156.1964     6243.477    369.35593    7820.0781    2907629.4    1.6642092    10.593061 
    2200    1041.9377    5112.5024    6154.4401    366.22598    7426.0763    2959295.6    1.6351538     11.02778 
    2300    955.24343    5074.9963    6030.2398     363.5393    6832.2255    3010826.8    1.6071676     11.49153 
    2400    988.23778    5038.9381    6027.1759    360.95632    6887.5517    3062220.6    1.5801943    11.954814 
    2500    901.40878     4991.073    5892.4818    357.52758    6306.3116    3113700.4    1.5540684    12.389704 
    2600    878.05812    4969.8558    5847.9139    356.00772    6080.8899    3165212.6    1.5287767    12.849097 
    2700    837.49277    4940.6853    5778.1781    353.91814    5771.6542    3216976.6    1.5041774    13.308502 
    2800    850.46347    4913.9412    5764.4046    352.00236    5737.5834    3268634.1    1.4804053    13.741691 
    2900    798.16813    4890.5455    5688.7136    350.32645    5391.2496    3320609.5    1.4572335    14.197598 
    3000    761.34139    4865.9272    5627.2686    348.56296    5126.5621    3372704.8    1.4347249    14.653464 
    3100    729.74533    4846.7527    5576.4981    347.18943    4893.3425    3425080.3    1.4127854    15.075787 
    3200     753.6873    4814.0182    5567.7054    344.84454    4916.2052    3477505.6    1.3914869    15.513663 
    3300    692.85409    4781.5497    5474.4038    342.51871    4565.0087    3530168.4    1.3707288    15.954226 
    3400    665.97514    4758.0555    5424.0307    340.83574    4372.9677    3582910.5     1.350551    16.370913 
    3500    639.20205    4736.5468    5375.7488      339.295    4187.0278    3635910.4    1.3308643    16.813068 
    3600    654.94827    4713.4171    5368.3654    337.63814    4185.7421    3689351.6    1.3115864      17.2285 
    3700    610.19826      4706.31    5316.5083    337.12904    3933.6704    3743231.3    1.2927076    17.666251 
    3800    577.42806    4691.5859     5269.014     336.0743     3736.961    3797049.2    1.2743852     18.10393 
    3900    534.55912    4674.4018    5208.9609    334.84334    3501.9897      3851214    1.2564618    18.518504 
    4000    509.25459    4666.0406    5175.2952     334.2444    3345.6426    3906246.4    1.2387604    18.954615 
    4100    563.50347    4653.5207    5217.0242    333.34756    3515.4952    3961181.5    1.2215808     19.38273 
    4200     534.2023    4628.1517     5162.354    331.53029    3340.7291    4016633.1    1.2047163    19.781539 
    4300    494.21919    4615.3872    5109.6064    330.61593    3138.9317    4072227.8    1.1882693    20.204323 
    4400    500.37973    4599.0855    5099.4653    329.44818    3118.8262    4128262.8    1.1721403     20.60894 
    4500    506.45104    4579.0464    5085.4974    328.01271    3093.9702    4184703.8    1.1563312    21.032973 
    4600    492.00529    4565.8109    5057.8162    327.06461    2994.2919    4241512.7    1.1408438    21.434894 
    4700    465.01042    4556.5164    5021.5268    326.39881    2852.5074    4298622.7    1.1256869    21.857528 
    4800    458.62963     4538.025    4996.6546    325.07421    2784.7786    4355804.1    1.1109093    22.257699 
    4900    461.37167    4527.4907    4988.8624     324.3196    2758.2586    4413555.3    1.0963731    22.679145 
    5000    430.35086    4519.7596    4950.1105    323.76579     2609.862    4471976.3    1.0820503    23.079492 
    5100     417.9573    4510.1135    4928.0708    323.07481    2530.9378    4530549.1    1.0680611     23.49043 
    5200    418.55756    4493.2927    4911.8502    321.86988    2496.7809    4589507.6    1.0543404    23.878336 
    5300    407.91243    4478.4741    4886.3865    320.80837    2424.0087    4648797.2    1.0408936     24.28587 
    5400    374.41289    4480.1752    4854.5881    320.93023    2280.7253      4708840    1.0276211    24.679899 
    5500    397.67204    4461.6189     4859.291    319.60098    2324.4954    4768790.1    1.0147025    25.088169 
    5600     418.9909    4449.0301     4868.021     318.6992    2364.7978    4829465.9    1.0019541    25.566364 
    5700    363.95142    4445.5076     4809.459    318.44687    2153.9877    4890915.4   0.98936559     25.97428 
    5800    372.55796    4435.3516    4807.9095    317.71936    2151.4437    4952381.6   0.97708613    26.364301 
    5900    360.22809    4427.6627    4787.8908    317.16858    2086.5272    5014802.4   0.96492405    26.773848 
    6000    352.12975    4424.4408    4776.5706    316.93778    2034.1559    5077431.3   0.95302194    27.162667 
    6100    345.59948    4417.9613    4763.5607    316.47363    1987.8231      5140653   0.94130131    27.562209 
    6200    352.86424    4410.8115    4763.6757    315.96147    1984.0898      5204005    0.9298422    27.938957 
    6300    324.59067    4409.2002    4733.7908    315.84605    1874.2791    5267944.2   0.91855631    28.335643 
    6400    305.03998     4405.403     4710.443    315.57404    1793.1125    5332604.1   0.90741847    28.714893 
    6500    355.30657    4395.4896    4750.7962    314.86391    1917.6106    5397681.2   0.89647817    29.113528 
    6600    331.70535    4380.5251    4712.2304    313.79195    1823.3295    5463190.9   0.88572842    29.493069 
    6700    304.63635     4373.872    4678.5083    313.31537    1722.7297    5528973.2   0.87519024    29.892473 
    6800    298.88246    4367.0799    4665.9624    312.82883      1681.77    5595747.3   0.86474659    30.271036 
    6900    323.70442    4360.5316     4684.236    312.35975    1731.2041    5662780.1   0.85451021    30.669104 
    7000    277.61682    4356.0381    4633.6549    312.03787    1581.2061    5730414.1   0.84442474     31.04794 
    7100    278.97103    4350.5535    4629.5246    311.64499    1566.2971    5798708.7   0.83447948    31.438169 
    7200    278.87774    4347.0273     4625.905    311.39239    1547.9963    5867805.4   0.82465301    31.806599 
    7300    266.02374    4348.3686    4614.3924    311.48847    1494.9058    5937417.3   0.81498456     32.19298 
    7400    270.71511    4345.0666    4615.7817    311.25194    1488.8831    6006874.2   0.80556097    32.562584 
    7500     264.4064    4341.7074    4606.1138    311.01131    1456.2194    6077318.6   0.79622341    32.950807 
    7600    251.29364     4334.926    4586.2196    310.52553    1403.8954    6148340.7    0.7870259    33.331489 
    7700    242.43751    4329.6258    4572.0633    310.14586    1364.6314    6219895.1   0.77797187    33.734196 
    7800    262.76956    4321.3543    4584.1238    309.55334     1398.378    6291901.7    0.7690685    34.117441 
    7900    243.44801    4314.1756    4557.6236    309.03911    1332.3479    6364507.1   0.76029507    34.527778 
    8000    254.11865    4311.6749    4565.7936    308.85998    1342.9622    6438288.6   0.75158224    34.919848 
    8100    253.22217    4315.3063    4568.5285    309.12011    1326.2764      6512553   0.74301175    35.323281 
    8200    243.73194    4308.8581      4552.59     308.6582    1287.6288    6587165.9   0.73459565    35.768274 
    8300    235.10825    4304.0147    4539.1229    308.31125    1251.8588    6662492.8   0.72629023    36.237026 
    8400    271.60125    4296.6419    4568.2431    307.78311    1322.3456    6737972.5   0.71815422    36.684577 
    8500    228.08747    4302.0725    4530.1599    308.17212    1207.9324    6814707.4   0.71006767    37.138285 
    8600    212.26767    4300.7859    4513.0536    308.07996    1156.3945    6892015.1   0.70210284    37.606834 
    8700    217.88814    4296.1707    4514.0588    307.74936    1156.3702    6970125.7   0.69423474    38.056132 
    8800    222.79266    4289.2017    4511.9943    307.25014     1153.575    7048494.9   0.68651584    38.527037 
    8900    206.44832    4283.8512    4490.2995    306.86687    1101.3243    7127487.7    0.6789073    38.958107 
    9000    214.59958    4284.2989    4498.8984    306.89894     1109.005    7207481.9   0.67137226    39.403186 
    9100    203.46633    4280.1899    4483.6563     306.6046    1070.2044    7287865.5   0.66396717    39.852254 
    9200     191.5359     4281.333    4472.8689    306.68648    1034.1906    7369025.4   0.65665446    40.266947 
    9300    218.92004    4276.9774    4495.8974    306.37448    1080.8684      7450950   0.64943442    40.700375 
    9400    180.57643    4275.6709    4456.2473    306.28088    987.30001      7533551   0.64231376    41.116087 
    9500    203.49644    4275.8661    4479.3625    306.29487    1024.8054    7616961.4   0.63528002      41.5476 
    9600    174.52409    4271.7532    4446.2773    306.00025    952.50294    7700759.2   0.62836706    41.961937 
    9700    190.89442    4269.0944    4459.9888    305.80979    976.48677    7785656.9   0.62151511    42.393964 
    9800    171.59382     4269.178    4440.7719    305.81578    926.41277    7871026.7   0.61477411    42.808223 
    9900    188.47609    4264.2039    4452.6799    305.45946    949.57868    7956978.1   0.60813331    43.239285 
   10000    192.69984    4258.5198    4451.2197     305.0523    946.29657      8043648    0.6015807    43.653718 
Loop time of 43.6537 on 2 procs for 10000 steps with 108000 atoms

Performance: 19.792 ns/day, 1.213 hours/ns, 229.075 timesteps/s
98.3% CPU use with 2 MPI tasks x 1 OpenMP threads

MPI task timing breakdown:
Section |  min time  |  avg time  |  max time  |%varavg| %total
---------------------------------------------------------------
Pair    | 12.975     | 13.018     | 13.062     |   1.2 | 29.82
Neigh   | 5.732      | 5.7468     | 5.7615     |   0.6 | 13.16
Comm    | 1.7717     | 1.8181     | 1.8645     |   3.4 |  4.16
Output  | 8.2805     | 8.2809     | 8.2813     |   0.0 | 18.97
Modify  | 12.929     | 12.954     | 12.979     |   0.7 | 29.67
Other   |            | 1.836      |            |       |  4.21

Nlocal:    54000 ave 54003 max 53997 min
Histogram: 1 0 0 0 0 0 0 0 0 1
Nghost:    10283.5 ave 10294 max 10273 min
Histogram: 1 0 0 0 0 0 0 0 0 1
Neighs:    123180 ave 123239 max 123120 min
Histogram: 1 0 0 0 0 0 0 0 0 1

Total # of neighbors = 246359
Ave neighs/atom = 2.2811
Neighbor list builds = 263
Dangerous builds = 0

unfix				equilibration



# ------------------------- STEP 2: INCREASE TEMPERATURE -------------------------

print "******************** Increasing temperature to 700 K ********************"
******************** Increasing temperature to 700 K ********************

neighbor			0.5 bin
neigh_modify		every 10 delay 0 check yes

velocity			all create 700.0 199 mom yes rot yes dist gaussian

fix					inc_temp all npt temp 700.0 700.0 0.1 iso 1 1 1 drag 0.2

timestep 			0.001

run 				10000
Per MPI rank memory allocation (min/avg/max) = 27.28 | 27.29 | 27.29 Mbytes
Step PotEng KinEng TotEng Temp Press Volume Density CPU 
   10000    192.69984    9771.9765    9964.6763          700    1678.4296      8043648    0.6015807            0 
   10100    394.05005    9763.6562    10157.706    699.40399     2032.632    8150515.5   0.59369292   0.43254399 
   10200    375.79044    9783.5203    10159.311    700.82692    1972.4482    8270440.5   0.58508412   0.85391498 
   10300    374.28345    9815.2561     10189.54    703.10027    1948.6263    8376964.1   0.57764404    1.2697179 
   10400    369.26145    9784.4778    10153.739    700.89551    1910.9254    8480697.7   0.57057846    1.6863761 
   10500    341.65038    9783.5463    10125.197    700.82879    1838.9266    8582265.3    0.5638259     2.106106 
   10600    355.78084    9787.9288     10143.71    701.14272    1843.3934    8683147.9   0.55727525     2.525069 
   10700    392.46886    9779.6256    10172.094    700.54793    1885.9893      8783498   0.55090847    2.9461811 
   10800    339.83312    9782.2756    10122.109    700.73776    1774.0595      8883808   0.54468798    3.3696761 
   10900    353.81244    9790.6586    10144.471    701.33827    1777.6529    8984482.4   0.53858455    3.7949882 
   11000    347.70402     9797.571    10145.275    701.83342    1749.6722    9084991.1    0.5326261     4.229563 
   11100    335.14551    9797.8689    10133.014    701.85476    1709.7908    9185807.2   0.52678042     4.635195 
   11200    320.83463    9790.4974    10111.332    701.32672    1666.5165    9287034.4    0.5210386    5.0421431 
   11300    323.06901    9781.0588    10104.128    700.65059    1649.9616    9388577.6   0.51540325     5.451256 
   11400    339.77794    9781.2826    10121.061    700.66663    1659.3381    9490524.6    0.5098668     5.862314 
   11500    300.11172    9777.8408    10077.952    700.42008    1575.4785      9593125   0.50441367     6.274632 
   11600    310.84752    9774.4399    10085.287    700.17646    1577.0472    9695877.2   0.49906814    6.6904571 
   11700    331.86718     9744.614    10076.481    698.03993    1588.6507    9799425.2   0.49379462    7.1073031 
   11800    322.86855    9744.3655    10067.234    698.02213     1560.003    9903699.2   0.48859555    7.5269971 
   11900    302.12778    9775.7862    10077.914    700.27291    1514.2319     10008546   0.48347718    7.9484479 
   12000    299.98924    9809.1198    10109.109     702.6607    1499.0793     10114472   0.47841386    8.3775501 
   12100    323.30069    9777.7225    10101.023    700.41161    1514.3512     10221043    0.4734256    8.7633331 
   12200     310.9077    9767.6052    10078.513    699.68687    1479.3492     10327856   0.46852932     9.148952 
   12300    285.43216    9778.2822    10063.714     700.4517    1426.8518     10435754   0.46368508    9.5352499 
   12400    264.30658    9778.9436     10043.25    700.49908     1381.801     10544465   0.45890459    9.9261551 
   12500    267.72866    9748.2027    10015.931    698.29701    1369.1866     10654061   0.45418395    10.316968 
   12600    290.82149    9750.7647    10041.586    698.48053    1387.7526     10763970   0.44954636    10.711643 
   12700    269.91728    9804.5361    10074.453    702.33235    1350.0323     10875168   0.44494977    11.106775 
   12800    278.70041    9816.3565    10095.057    703.17909    1348.8734     10987781   0.44038949    13.658455 
   12900    270.84244    9773.7651    10044.608    700.12813    1320.3086     11101013   0.43589746    14.060954 
   13000    237.37169    9773.6755    10011.047    700.12171    1261.0272     11214698   0.43147872    14.469133 
   13100     275.3789    9774.9448    10050.324    700.21263    1300.4417     11329436   0.42710895    14.848421 
   13200    282.23101    9760.0066    10042.238    699.14256      1294.65     11444938   0.42279859    15.230266 
   13300    253.02002    9745.7616    9998.7816    698.12214    1242.5588     11561581   0.41853302    15.614741 
   13400    234.21181    9761.2066    9995.4184    699.22851     1205.234     11678758   0.41433373    16.002962 
   13500    268.29233    9810.8772     10079.17    702.78659    1242.9659     11797866   0.41015072    16.391636 
   13600    265.12462    9784.8484    10049.973    700.92206    1222.2881     11917900   0.40601979    16.783263 
   13700    243.91055    9757.5626    10001.473    698.96748    1182.2932     12038430    0.4019547    17.177798 
   13800    218.01748    9769.2294    9987.2469    699.80322    1137.9418     12159511   0.39795213    17.575383 
   13900    225.22957    9780.6551    10005.885    700.62168    1136.4089     12281945    0.3939851     17.97469 
   14000    242.93103    9769.2452    10012.176    699.80435    1145.0633     12405332   0.39006641    18.383657 
   14100    217.93733    9741.3513    9959.2886    697.80621    1101.8784     12529849   0.38619007    18.761945 
   14200    246.42654    9758.4387    10004.865    699.03024    1126.7864     12655553   0.38235415    19.143355 
   14300    254.46534    9803.2691    10057.734     702.2416    1129.6146     12782397   0.37855995    19.526804 
   14400    220.51478    9784.4692    10004.984    700.89489    1076.2776     12910529   0.37480288    19.913343 
   14500     196.0254    9741.5376     9937.563    697.81956    1032.5166     13039278   0.37110209    20.301748 
   14600    206.33137    9758.7955    9965.1269     699.0558    1035.9475     13169115   0.36744331    20.696136 
   14700     238.4321    9788.2006    10026.633    701.16219    1065.5448     13299950   0.36382868    21.091232 
   14800    209.76028    9791.8275    10001.588      701.422    1021.5837     13432482   0.36023897    21.490027 
   14900    190.98563    9736.8283    9927.8139    697.48221    986.19795     13565905   0.35669596    21.889515 
   15000     202.8394    9755.0438    9957.8831    698.78705    991.81593     13700197   0.35319954    22.298739 
   15100     188.3776     9794.397    9982.7746    701.60606    969.05598     13835993     0.349733     22.67688 
   15200    197.56689    9786.1243    9983.6912    701.01346    968.25124     13972622   0.34631319    23.057328 
   15300     209.7082    9738.0456    9947.7538    697.56941    968.78599     14110430   0.34293097    23.441933 
   15400    186.97949    9732.6033    9919.5828    697.17957    934.36343     14249338   0.33958794    23.827862 
   15500    182.56495    9790.1498    9972.7148    701.30182    924.36284     14389660   0.33627642    24.216705 
   15600    195.26387    9792.0321     9987.296    701.43665    929.00221     14531871   0.33298558    24.608662 
   15700    210.21093    9765.4508    9975.6617    699.53254    933.79372     14674970   0.32973856    25.006137 
   15800    194.48149    9754.8074    9949.2889    698.77012    907.52494     14818799   0.32653815    25.403027 
   15900    188.61612    9785.8245    9974.4406    700.99198    895.52362     14964130   0.32336684    25.802468 
   16000    197.33612    9804.3566    10001.693     702.3195    895.75269     15111127   0.32022122    26.210814 
   16100    171.32857    9766.8196    9938.1482     699.6306    858.30378     15259173   0.31711439    26.588746 
   16200     179.5239    9732.9869    9912.5108    697.20704    856.24021     15408514   0.31404088    26.969832 
   16300    180.50182    9773.4353    9953.9372     700.1045    851.60375     15559043   0.31100264    27.355834 
   16400    172.58789    9797.8699    9970.4578    701.85484    837.40656     15711206   0.30799057    27.741397 
   16500    159.08007    9773.6801    9932.7601    700.12203    813.85749     15864174   0.30502082    28.130134 
   16600    180.86334    9756.0432    9936.9065    698.85864    826.87639     16018511   0.30208198    28.524226 
   16700    173.54192    9771.6384    9945.1803    699.97578    812.86486     16174166   0.29917484    28.920191 
   16800    183.20527    9807.3285    9990.5338    702.53239    817.23109     16331370     0.296295    29.320108 
   16900    149.25925    9781.4577     9930.717    700.67917     774.2764     16490209   0.29344099    29.720964 
   17000    157.90991    9735.4366    9893.3465    697.38252    772.41228     16649980   0.29062517    30.131611 
   17100    163.36754    9746.2789    9909.6464    698.15919    770.96303     16810868   0.28784376    30.509736 
   17200    157.65227    9785.4728    9943.1251    700.96679     760.0721     16973490   0.28508593     30.89618 
   17300    144.14526    9774.2754    9918.4207    700.16468    740.22348     17137503   0.28235756    31.280919 
   17400     132.0458    9761.5057    9893.5515    699.24994    721.88653     17303133   0.27965475    31.669414 
   17500    141.03009    9776.7143    9917.7444    700.33939    723.56773     17470214   0.27698021    32.061214 
   17600    146.10264    9805.1911    9951.2937    702.37928    723.17712     17639487   0.27432223    32.457568 
   17700    179.41274    9768.4326    9947.8453    699.74614    742.87446     17809612   0.27170179    32.860094 
   17800    153.23294    9725.7346    9878.9676    696.68754    710.41258     17980758   0.26911565    33.260428 
   17900    160.01403    9755.5197    9915.5338    698.82115    711.16769     18153584   0.26655361    33.665911 
   18000    135.23371     9780.112    9915.3457    700.58278    684.61992     18328260   0.26401325    34.079612 
   18100    144.70133    9769.0465    9913.7478    699.79011    685.77181     18504648   0.26149665    34.462395 
   18200    144.40556    9764.2932    9908.6988    699.44962    678.56817     18682157   0.25901202    34.844995 
   18300    148.13657    9788.9099    9937.0465      701.213    676.29928     18861339   0.25655143    35.234494 
   18400    146.56085    9793.6073    9940.1682    701.54949    669.45144     19042281   0.25411364    35.624159 
   18500    130.32992     9760.437     9890.767    699.17339    648.35932     19224995   0.25169855    36.017111 
   18600    138.89386    9733.1351     9872.029    697.21766    647.16628     19408269   0.24932174    36.413724 
   18700    131.00126    9771.9392    9902.9404    699.99733    637.06959     19593732    0.2469618    36.814522 
   18800    127.47311     9774.922    9902.3951      700.211    628.10506     19780435   0.24463079    37.222275 
   18900    145.97951    9762.2937    9908.2732    699.30639    636.20171     19968748   0.24232383    37.628061 
   19000    111.11332    9773.9954    9885.1087    700.14462    604.19825     20158741   0.24003996    38.045264 
   19100    126.51456    9791.6043    9918.1189    701.40601     610.4674     20350416   0.23777909    38.429363 
   19200    136.82899    9776.6848    9913.5138    700.33727    612.28114     20544657   0.23553099    38.814544 
   19300     131.7338     9747.796    9879.5298    698.26787    600.39287     20739696   0.23331602    39.202735 
   19400    128.57449    9763.8513    9892.4258    699.41797    594.06364     20936627   0.23112144    39.594633 
   19500    122.52558    9780.6021    9903.1277    700.61788      584.908     21135606   0.22894557    39.990706 
   19600    132.73639    9769.4747    9902.2111    699.82079    586.09066     21336425   0.22679073    40.390713 
   19700    128.88074    9769.0474    9897.9281    699.79018    578.08278     21538775   0.22466011    40.797767 
   19800    127.43716    9793.5433    9920.9804     701.5449    572.54948     21743363   0.22254623    41.209244 
   19900    117.10055    9782.7041    9899.8047    700.76846    559.05585     21949672   0.22045448    41.628191 
   20000    134.92663    9755.0915    9890.0181    698.79047    564.99242     22157057   0.21839107    43.812239 
Loop time of 43.8123 on 2 procs for 10000 steps with 108000 atoms

Performance: 19.721 ns/day, 1.217 hours/ns, 228.247 timesteps/s
94.9% CPU use with 2 MPI tasks x 1 OpenMP threads

MPI task timing breakdown:
Section |  min time  |  avg time  |  max time  |%varavg| %total
---------------------------------------------------------------
Pair    | 4.6557     | 4.6664     | 4.677      |   0.5 | 10.65
Neigh   | 10.932     | 10.953     | 10.973     |   0.6 | 25.00
Comm    | 1.5795     | 1.6517     | 1.7239     |   5.6 |  3.77
Output  | 12.455     | 12.455     | 12.455     |   0.0 | 28.43
Modify  | 13.037     | 13.129     | 13.221     |   2.5 | 29.97
Other   |            | 0.957      |            |       |  2.18

Nlocal:    54000 ave 54102 max 53898 min
Histogram: 1 0 0 0 0 0 0 0 0 1
Nghost:    4675.5 ave 4766 max 4585 min
Histogram: 1 0 0 0 0 0 0 0 0 1
Neighs:    6756 ave 6785 max 6727 min
Histogram: 1 0 0 0 0 0 0 0 0 1

Total # of neighbors = 13512
Ave neighs/atom = 0.125111
Neighbor list builds = 1000
Dangerous builds = 1000

unfix 				inc_temp



# ------------------------- BINDING FORCE FIELDS / POTENTIAL -------------------------

pair_style		lj/cut 10
pair_coeff		* * 3.920 2.62 10

# pair_style		eam/alloy
# pair_coeff		* * Al_Zhou04.eam.alloy Al

print "******************** Force field altered for binding ********************"
******************** Force field altered for binding ********************



# ------------------------- STEP 3: NVE INTERACTION  -------------------------

print "******************** NVE interaction ********************"
******************** NVE interaction ********************

neighbor			0.5 bin
neigh_modify		every 10 delay 0 check yes

fix					nve all nve
fix					temp_rescale all temp/rescale 100 700 700 0.1 0.9

timestep 			0.001

run 				10000
Per MPI rank memory allocation (min/avg/max) = 36.94 | 36.94 | 36.94 Mbytes
Step PotEng KinEng TotEng Temp Press Volume Density CPU 
   20000   -197764.46    9755.0915   -188009.37    698.79047   -3266.4391     22157057   0.21839107            0 
   20100   -370314.43    26969.514   -343344.92    1931.9182   -9844.7532     22157057   0.21839107    1.2216928 
   20200   -543993.61    28814.149   -515179.46    2064.0558   -10930.859     22157057   0.21839107    2.4519119 
   20300   -726401.26    29842.494   -696558.77    2137.7196    -11807.51     22157057   0.21839107      3.68536 
   20400   -907618.69    29797.175   -877821.51    2134.4733   -10907.766     22157057   0.21839107     4.932616 
   20500     -1075854    28476.504   -1047377.5    2039.8691   -10424.442     22157057   0.21839107     6.198163 
   20600   -1225283.8    26456.052   -1198827.8    1895.1372   -8636.5657     22157057   0.21839107     7.477582 
   20700   -1352385.7    24026.878   -1328358.8    1721.1272   -7171.1126     22157057   0.21839107    9.0399199 
   20800   -1457832.3    21626.812   -1436205.5    1549.2023    -5865.735     22157057   0.21839107    10.718183 
   20900     -1544221    19492.393   -1524728.6    1396.3066    -4053.437     22157057   0.21839107    12.417019 
   21000   -1612530.5    17487.137   -1595043.3    1252.6632   -3634.2372     22157057   0.21839107    14.019292 
   21100   -1666418.5    15856.619   -1650561.9    1135.8637   -3259.5645     22157057   0.21839107    15.437259 
   21200   -1710032.6    14676.663   -1695355.9    1051.3394   -3048.0753     22157057   0.21839107    16.897219 
   21300   -1745480.1    13748.421   -1731731.7    984.84627   -2414.4468     22157057   0.21839107    18.396162 
   21400   -1775109.1    13081.313   -1762027.8    937.05907   -2444.4208     22157057   0.21839107    19.931002 
   21500   -1800367.1    12581.644   -1787785.5    901.26605   -2071.7152     22157057   0.21839107    21.500105 
   21600   -1822145.7    12186.801   -1809958.9    872.98213   -1343.6657     22157057   0.21839107    23.104145 
   21700   -1841325.7    11892.102   -1829433.6    851.87184   -1563.4855     22157057   0.21839107    24.741255 
   21800   -1858729.3    11687.561   -1847041.8    837.21984   -1366.4822     22157057   0.21839107    26.410165 
   21900   -1874378.3    11494.303     -1862884    823.37614   -1162.4743     22157057   0.21839107    28.118813 
   22000   -1888526.2    11327.185     -1877199    811.40492   -1358.1008     22157057   0.21839107    29.845804 
   22100     -1902019     11245.07     -1890774    805.52268    -1014.566     22157057   0.21839107    31.553979 
   22200   -1914237.8    11111.611   -1903126.2    795.96261   -1143.2777     22157057   0.21839107    33.289572 
   22300   -1925702.5    11024.979   -1914677.5    789.75686   -1116.0953     22157057   0.21839107    35.049294 
   22400   -1936697.8    10969.162   -1925728.6    785.75848   -1123.1485     22157057   0.21839107    36.832419 
   22500   -1947063.2    10901.258   -1936161.9    780.89429   -928.77079     22157057   0.21839107    38.639424 
   22600   -1956536.2    10807.111   -1945729.1    774.15023   -838.13125     22157057   0.21839107    40.469358 
   22700   -1965626.5    10759.627   -1954866.9    770.74878   -923.75537     22157057   0.21839107    42.322202 
   22800   -1974134.3    10698.394   -1963435.9    766.36245    -691.9456     22157057   0.21839107    44.196383 
   22900   -1982499.8    10678.273   -1971821.5    764.92113   -828.19926     22157057   0.21839107    46.091647 
   23000   -1990739.8    10663.497   -1980076.3    763.86263   -868.59081     22157057   0.21839107    48.010052 
   23100   -1998570.4    10622.603   -1987947.8    760.93327   -760.96342     22157057   0.21839107    49.920308 
   23200   -2005937.2     10574.49   -1995362.7    757.48676   -839.73774     22157057   0.21839107    51.856211 
   23300   -2012722.9    10511.461   -2002211.4    752.97181   -767.71986     22157057   0.21839107    53.805204 
   23400   -2019190.4    10474.613   -2008715.8    750.33226   -640.13922     22157057   0.21839107    55.772733 
   23500   -2025554.9    10461.163   -2015093.8    749.36877   -682.83531     22157057   0.21839107    57.758082 
   23600   -2031580.1    10426.097     -2021154    746.85687   -589.40518     22157057   0.21839107    59.760858 
   23700   -2037515.7    10414.292   -2027101.4    746.01127   -703.25047     22157057   0.21839107    61.780979 
   23800   -2043054.2    10372.848   -2032681.3     743.0425   -509.23681     22157057   0.21839107    63.817834 
   23900   -2048721.6    10381.377   -2038340.2    743.65342   -443.36629     22157057   0.21839107    65.871104 
   24000   -2054140.4     10358.59   -2043781.8    742.02111   -476.39636     22157057   0.21839107    67.908494 
   24100     -2059350    10336.127   -2049013.8    740.41203   -443.58756     22157057   0.21839107    70.323075 
   24200   -2064126.2    10291.918   -2053834.3    737.24521   -470.80869     22157057   0.21839107      72.7748 
   24300   -2068674.9    10265.274   -2058409.6    735.33656   -348.31779     22157057   0.21839107    75.140722 
   24400   -2073313.3    10271.618   -2063041.7    735.79099   -467.17426     22157057   0.21839107    77.416272 
   24500   -2077868.7    10263.924   -2067604.8    735.23987   -487.47964     22157057   0.21839107    79.671106 
   24600   -2081946.2    10216.184     -2071730    731.82011   -536.32931     22157057   0.21839107    81.932488 
   24700   -2086161.8    10225.655   -2075936.2    732.49854   -272.30498     22157057   0.21839107     84.08372 
   24800   -2089969.4    10186.737   -2079782.7    729.71071    -418.9722     22157057   0.21839107    86.237726 
   24900   -2093576.7    10162.809   -2083413.9    727.99665   -329.07125     22157057   0.21839107    88.404952 
   25000   -2097286.9    10170.458   -2087116.4    728.54458    -374.8353     22157057   0.21839107    90.582639 
   25100   -2101100.9    10180.665   -2090920.2    729.27574   -152.95394     22157057   0.21839107    92.750892 
   25200   -2104636.6    10155.185   -2094481.4    727.45055   -313.93119     22157057   0.21839107    94.933509 
   25300   -2108363.5    10171.408   -2098192.1    728.61267   -179.22722     22157057   0.21839107    97.127803 
   25400   -2111814.4    10146.687   -2101667.7    726.84177   -446.81211     22157057   0.21839107    99.333708 
   25500   -2115029.7    10121.516   -2104908.2    725.03868    -199.5415     22157057   0.21839107    101.55019 
   25600   -2118049.2    10099.869   -2107949.3    723.48803   -349.28771     22157057   0.21839107    103.77632 
   25700   -2120947.2    10085.712   -2110861.5    722.47395   -176.79622     22157057   0.21839107    106.01257 
   25800   -2123534.7    10054.273   -2113480.4    720.22187   -347.75214     22157057   0.21839107    108.25836 
   25900   -2126095.2    10048.444   -2116046.8    719.80432   -367.43991     22157057   0.21839107    110.51192 
   26000   -2128698.3     10051.81   -2118646.5     720.0454   -157.31447     22157057   0.21839107    112.77964 
   26100   -2131172.1    10040.517   -2121131.6    719.23644   -326.56888     22157057   0.21839107    115.03364 
   26200   -2133671.7    10040.875   -2123630.8    719.26209   -330.66989     22157057   0.21839107    117.29653 
   26300   -2135974.9    10020.975   -2125953.9    717.83662   -225.08579     22157057   0.21839107    119.56874 
   26400   -2138414.4    10033.166   -2128381.2    718.70991    -290.3096     22157057   0.21839107    121.84948 
   26500   -2140901.2     10038.42   -2130862.8    719.08627    -318.1532     22157057   0.21839107    124.13889 
   26600   -2143163.4    10017.382     -2133146     717.5792   -205.72584     22157057   0.21839107    126.39832 
   26700   -2145387.1    10011.916   -2135375.2    717.18771   -134.85788     22157057   0.21839107    128.83234 
   26800   -2147386.2    9989.1187   -2137397.1    715.55464   -94.232688     22157057   0.21839107    131.51824 
   26900   -2149453.2    9994.4842   -2139458.7    715.93899   -211.45353     22157057   0.21839107    134.12892 
   27000   -2151602.9    10002.436   -2141600.5    716.50861   -174.38539     22157057   0.21839107    136.55114 
   27100   -2153289.9    9957.9522     -2143332    713.32207   -226.86056     22157057   0.21839107    138.88279 
   27200   -2155114.4    9967.0167   -2145147.4    713.97139   -134.30437     22157057   0.21839107     141.2134 
   27300   -2157280.8    10001.226   -2147279.6     716.4219      -291.81     22157057   0.21839107    143.55124 
   27400   -2159253.6    9984.9752   -2149268.6    715.25782   -234.58707     22157057   0.21839107    145.89641 
   27500   -2161311.8    9992.3463   -2151319.4    715.78584   -212.42126     22157057   0.21839107     148.3587 
   27600   -2163278.8    9983.4254   -2153295.4    715.14681   -105.51659     22157057   0.21839107    150.71913 
   27700   -2165191.1    9978.5835   -2155212.5    714.79996   -277.95006     22157057   0.21839107    153.08683 
   27800   -2167190.1      9985.32   -2157204.8    715.28252   -169.38111     22157057   0.21839107    155.46104 
   27900   -2169069.6    9974.6942   -2159094.9    714.52136   -62.287662     22157057   0.21839107    157.84409 
   28000   -2170937.1    9973.4337   -2160963.7    714.43107   -78.365782     22157057   0.21839107    160.23513 
   28100   -2172664.7    9959.2346   -2162705.5    713.41394   -115.31678     22157057   0.21839107    162.62081 
   28200   -2174286.9    9947.6212   -2164339.3    712.58203   -208.37482     22157057   0.21839107    165.01406 
   28300   -2175774.4    9933.1515   -2165841.3    711.54552   -215.16825     22157057   0.21839107    167.41366 
   28400   -2177373.4    9942.3557     -2167431    712.20484   -91.828567     22157057   0.21839107    169.81971 
   28500   -2178896.6    9936.5104   -2168960.1    711.78612   -245.56092     22157057   0.21839107    172.23677 
   28600   -2180369.3    9930.7115   -2170438.6    711.37073   -126.21001     22157057   0.21839107    174.65245 
   28700   -2181775.4    9924.1103   -2171851.3    710.89786   -243.15035     22157057   0.21839107    177.07401 
   28800   -2183357.4    9940.0782   -2173417.3     712.0417   -167.03661     22157057   0.21839107    179.49878 
   28900   -2184831.9    9930.7434   -2174901.1    711.37301   -117.09547     22157057   0.21839107    181.92743 
   29000   -2186242.1    9923.7575   -2176318.4    710.87259   -67.805198     22157057   0.21839107    184.36199 
   29100     -2187697    9927.7555   -2177769.2    711.15898   -122.31983     22157057   0.21839107    186.76641 
   29200     -2189020     9915.332   -2179104.6    710.26904   -119.33062     22157057   0.21839107    189.25464 
   29300   -2190426.7    9922.5816   -2180504.1    710.78835   -22.047827     22157057   0.21839107    192.10874 
   29400   -2191645.5    9904.7097   -2181740.8    709.50813   -45.710888     22157057   0.21839107    194.85029 
   29500   -2192771.9    9894.3028   -2182877.6    708.76265   -192.82338     22157057   0.21839107    197.44819 
   29600   -2193936.3    9897.2186   -2184039.1    708.97152   -159.90539     22157057   0.21839107    200.05027 
   29700   -2195061.9     9892.732   -2185169.1    708.65013    159.68042     22157057   0.21839107    202.60032 
   29800   -2196068.1    9881.1294     -2186187      707.819   -134.73238     22157057   0.21839107    205.19422 
   29900   -2197114.5    9884.4812     -2187230     708.0591   -153.58426     22157057   0.21839107    207.70143 
   30000   -2198241.5    9891.8911   -2188349.6    708.58989   -193.56816     22157057   0.21839107    210.17676 
Loop time of 210.177 on 2 procs for 10000 steps with 108000 atoms

Performance: 4.111 ns/day, 5.838 hours/ns, 47.579 timesteps/s
99.4% CPU use with 2 MPI tasks x 1 OpenMP threads

MPI task timing breakdown:
Section |  min time  |  avg time  |  max time  |%varavg| %total
---------------------------------------------------------------
Pair    | 158.17     | 160.2      | 162.23     |  16.0 | 76.22
Neigh   | 30.449     | 30.82      | 31.192     |   6.7 | 14.66
Comm    | 2.8544     | 5.1959     | 7.5374     | 102.7 |  2.47
Output  | 8.7642     | 8.7646     | 8.7649     |   0.0 |  4.17
Modify  | 4.009      | 4.0648     | 4.1206     |   2.8 |  1.93
Other   |            | 1.133      |            |       |  0.54

Nlocal:    54000 ave 54032 max 53968 min
Histogram: 1 0 0 0 0 0 0 0 0 1
Nghost:    18074.5 ave 18289 max 17860 min
Histogram: 1 0 0 0 0 0 0 0 0 1
Neighs:    2.19153e+06 ave 2.22654e+06 max 2.15652e+06 min
Histogram: 1 0 0 0 0 0 0 0 0 1

Total # of neighbors = 4383060
Ave neighs/atom = 40.5839
Neighbor list builds = 1000
Dangerous builds = 1000

unfix 				temp_rescale
unfix 				nve



# ------------------------- STEP 4a: COOLING 700 - 600  -------------------------

print "******************** Decreasing temperature from 700 K to 600 K ********************"
******************** Decreasing temperature from 700 K to 600 K ********************

neighbor			0.5 bin
neigh_modify		every 10 delay 0 check yes

fix					2 all npt temp 600.0 600.0 0.1 iso 1 1 1 drag 0.2
fix					temp_rescale all temp/rescale 100 600 600 0.1 0.9

timestep 			0.001

run 				8000
Per MPI rank memory allocation (min/avg/max) = 42.66 | 42.85 | 43.04 Mbytes
Step PotEng KinEng TotEng Temp Press Volume Density CPU 
   30000   -2198241.5    9891.8911   -2188349.6    708.58989   -193.56816     22157057   0.21839107            0 
   30100   -2199569.4    8600.3328     -2190969    616.07117    -10.56078     22140448    0.2185549     2.575968 
   30200   -2201339.8    8514.5668   -2192825.2    609.92746   -103.86285     22121235   0.21874472    5.1583638 
   30300   -2202564.4    8464.0982   -2194100.3    606.31222   -151.74542     22093908   0.21901527    7.7427149 
   30400   -2203488.8    8437.2285   -2195051.6    604.38745   -105.81136     22048497   0.21946637     10.33068 
   30500   -2204390.3    8437.3288     -2195953    604.39463   -84.175122     21996884   0.21998131    12.922113 
   30600   -2205292.8    8438.4921   -2196854.3    604.47797   -39.129466     21939405   0.22055764    15.517465 
   30700   -2206215.7    8440.5503   -2197775.2     604.6254   -93.229745     21881035   0.22114601    18.115775 
   30800   -2207108.4    8439.0262   -2198669.3    604.51622   -3.5306897     21831602   0.22164674      20.7173 
   30900   -2208075.8    8446.6277   -2199629.2    605.06075   -1.6482209     21783734    0.2221338    23.328204 
   31000   -2208983.3    8441.3784     -2200542    604.68472   -3.5714176     21742538   0.22255467    25.939624 
   31100   -2209908.9    8441.2485   -2201467.7    604.67542   -27.750998     21692531   0.22306772    28.546666 
   31200   -2211088.7    8463.4428   -2202625.3    606.26527   -144.79968     21646062   0.22354659    31.159571 
   31300   -2212089.6    8448.2266   -2203641.4    605.17528   -9.6566467     21601744   0.22400522    33.777851 
   31400   -2213137.5    8452.2697   -2204685.2     605.4649   -137.07883     21550084    0.2245422    36.343571 
   31500   -2214378.1    8467.9767   -2205910.2    606.59005   -33.060178     21496950   0.22509721    39.235569 
   31600   -2215737.6    8478.5206   -2207259.1    607.34535    54.769401     21450375   0.22558596    42.315824 
   31700   -2216943.4    8465.4401     -2208478    606.40834   -150.26975     21417721    0.2259299      45.2435 
   31800   -2218004.5    8452.2688   -2209552.2    605.46484    -31.21836     21389708   0.22622578    48.079287 
   31900   -2219099.4    8454.9586   -2210644.5    605.65752   -4.7691959     21350036   0.22664615    50.882495 
   32000   -2220142.5    8450.2489   -2211692.3    605.32015   -11.555557     21309897   0.22707305    53.636777 
   32100   -2221330.7    8464.3193   -2212866.4    606.32806   -160.83735     21270202   0.22749682    56.265153 
   32200     -2222458     8458.252   -2213999.8    605.89344   -95.362505     21239925   0.22782111    58.903423 
   32300   -2223568.9    8456.1798   -2215112.8      605.745   -8.3028282     21219024   0.22804552    61.539533 
   32400   -2224451.7    8437.1897   -2216014.5    604.38467    8.8130728     21203044    0.2282174    64.180806 
   32500   -2225206.3    8427.2395     -2216779     603.6719    3.1542719     21196698   0.22828572    66.819837 
   32600   -2225904.2    8421.7772   -2217482.4    603.28062   -40.814183     21176127   0.22850748    69.463622 
   32700   -2226639.5    8426.8983   -2218212.6    603.64746   -58.521773     21143734   0.22885756    72.107772 
   32800   -2227504.7    8438.7993   -2219065.9    604.49997    -12.55543     21096533    0.2293696    74.755886 
   32900   -2228341.9    8435.9926   -2219905.9    604.29892   -46.342679     21052381   0.22985064    77.406446 
   33000   -2229162.7    8433.6156   -2220729.1    604.12865    28.745515     21016893   0.23023876    80.060306 
   33100   -2230024.7    8437.1158   -2221587.6    604.37938   -69.389659     20990236   0.23053116    82.711157 
   33200   -2230872.7    8436.9144   -2222435.8    604.36495   -73.023381     20957733   0.23088869    85.361524 
   33300     -2231650    8431.2797   -2223218.7    603.96132    122.53278     20925731   0.23124178    88.015398 
   33400   -2232320.6    8422.1645   -2223898.5    603.30837   -67.279455     20889588   0.23164187    90.673058 
   33500   -2232948.7     8417.989   -2224530.7    603.00926   -10.154295     20839075   0.23220337    93.333794 
   33600   -2233877.9    8443.8783     -2225434     604.8638   -17.764544     20778808   0.23287686    95.988671 
   33700   -2234833.8    8446.8316     -2226387    605.07535   -57.492358     20724507   0.23348703    98.860126 
   33800   -2235729.4    8442.0112   -2227287.4    604.73005   -15.321373     20693328   0.23383882    102.00311 
   33900   -2236515.3    8430.4004   -2228084.9    603.89833   -48.046541     20666564   0.23414165    104.87368 
   34000   -2237313.2    8431.4031   -2228881.8    603.97016     -49.1978     20646407   0.23437024    107.72271 
   34100   -2238141.2    8434.6346   -2229706.6    604.20164    5.0967104     20618217   0.23469068    110.54201 
   34200   -2238966.7    8433.6146   -2230533.1    604.12857   -138.94493     20588979   0.23502397    113.23299 
   34300   -2239732.3     8429.323     -2231303    603.82115   -21.279903     20563166   0.23531899    115.92449 
   34400   -2240481.4     8427.832   -2232053.6    603.71435    124.74813     20528539   0.23571592    118.61441 
   34500   -2241168.6    8422.8837   -2232745.7    603.35988   -48.217198     20496691   0.23608218     121.3046 
   34600   -2241997.1    8434.3763   -2233562.7    604.18314   -23.036782     20457477   0.23653471    123.99763 
   34700   -2242670.1    8422.2886   -2234247.8    603.31725   -31.082777     20429210   0.23686199     126.6944 
   34800   -2243493.3    8434.3582   -2235058.9    604.18184    60.943259     20389994   0.23731755    129.39301 
   34900   -2244334.2    8435.7055   -2235898.5    604.27835    -48.35688     20349360   0.23779143    132.09376 
   35000   -2245219.5    8440.0056   -2236779.5    604.58638   -95.600926     20313078   0.23821616    134.83086 
   35100   -2246029.2    8432.2975   -2237596.9    604.03422   -38.581285     20283427   0.23856439    137.55735 
   35200   -2246855.9    8433.4731   -2238422.5    604.11844   -77.106811     20255470   0.23889367    140.28683 
   35300     -2247611    8428.0223     -2239183    603.72798   -77.214664     20229599   0.23919918    143.02199 
   35400   -2248424.2    8434.0648   -2239990.1    604.16083   -247.48373     20207351   0.23946253    145.75566 
   35500   -2249201.8    8431.1023   -2240770.7    603.94861    46.457746     20169713   0.23990939    148.49246 
   35600   -2250008.3    8432.2675     -2241576    604.03208   -4.7131234     20143417   0.24022258    151.23095 
   35700   -2250752.1    8428.1233     -2242324    603.73521  -0.75874583     20133056   0.24034619     153.9724 
   35800   -2251314.6    8413.8564   -2242900.7    602.71323   -151.22939     20120051   0.24050155    156.68958 
   35900   -2251772.9    8403.2282   -2243369.6    601.95189   -22.575615     20089168   0.24087127    159.78062 
   36000   -2252296.3    8410.3132     -2243886    602.45941    89.814054     20056776   0.24126028    162.91358 
   36100     -2252810    8409.3979   -2244400.6    602.39385    70.979162     20011892    0.2418014    165.75858 
   36200   -2253375.9    8413.6719   -2244962.2    602.70001   -69.947458     19962561   0.24239892    168.50606 
   36300   -2254058.3    8424.1193   -2245634.2    603.44839   -90.019223     19917444   0.24294801    171.25589 
   36400   -2254800.6    8428.9557   -2246371.7    603.79484   -45.104968     19874086   0.24347803    174.00836 
   36500   -2255549.1    8429.2513   -2247119.9    603.81602    4.1927531     19843724   0.24385057    176.76387 
   36600   -2256254.7    8424.7946   -2247829.9    603.49677    19.691882     19816293   0.24418812    179.52222 
   36700   -2256945.4    8423.6393   -2248521.8    603.41401   -95.827334     19792124   0.24448631    182.28317 
   36800   -2257652.3    8423.7432   -2249228.5    603.42145    92.232476     19760612   0.24487619    185.04749 
   36900   -2258278.4    8417.5633   -2249860.8    602.97877   -92.498226     19744043   0.24508169    187.81446 
   37000   -2259111.1     8437.299   -2250673.8     604.3925   -97.969466     19712574   0.24547294    190.58567 
   37100   -2259728.6    8418.1372   -2251310.4    603.01988    112.26103     19687065   0.24579101    193.35395 
   37200   -2260377.1    8421.1328     -2251956    603.23446   -119.25454     19663330   0.24608769    196.12467 
   37300   -2260950.7    8413.6738     -2252537    602.70014   -126.18447     19627255      0.24654    198.89787 
   37400   -2261655.8     8424.318   -2253231.5    603.46263   -147.84948     19590819   0.24699852      201.678 
   37500   -2262263.9    8416.1063   -2253847.8    602.87439   -95.974637     19551449   0.24749589    204.45842 
   37600   -2263019.1    8428.7996   -2254590.3    603.78366   -33.924763     19502581   0.24811606    207.24108 
   37700   -2263728.6     8426.682   -2255301.9    603.63197    27.229105     19468255   0.24855352    210.02689 
   37800   -2264468.2    8428.6195   -2256039.6    603.77076   -12.866921     19434963    0.2489793    212.81757 
   37900   -2265138.7    8421.4547   -2256717.2    603.25752    50.667823     19402254   0.24939904    215.61177 
   38000   -2265849.7    8425.6552     -2257424    603.55842   -55.117192     19371735   0.24979195    218.51189 
Loop time of 218.512 on 2 procs for 8000 steps with 108000 atoms

Performance: 3.163 ns/day, 7.587 hours/ns, 36.611 timesteps/s
99.4% CPU use with 2 MPI tasks x 1 OpenMP threads

MPI task timing breakdown:
Section |  min time  |  avg time  |  max time  |%varavg| %total
---------------------------------------------------------------
Pair    | 163.39     | 166.9      | 170.41     |  27.2 | 76.38
Neigh   | 26.416     | 26.914     | 27.412     |   9.6 | 12.32
Comm    | 2.3203     | 6.3303     | 10.34      | 159.4 |  2.90
Output  | 6.8935     | 6.8939     | 6.8942     |   0.0 |  3.15
Modify  | 10.546     | 10.546     | 10.547     |   0.0 |  4.83
Other   |            | 0.9249     |            |       |  0.42

Nlocal:    54000 ave 54054 max 53946 min
Histogram: 1 0 0 0 0 0 0 0 0 1
Nghost:    18865.5 ave 19109 max 18622 min
Histogram: 1 0 0 0 0 0 0 0 0 1
Neighs:    2.40902e+06 ave 2.4382e+06 max 2.37984e+06 min
Histogram: 1 0 0 0 0 0 0 0 0 1

Total # of neighbors = 4818045
Ave neighs/atom = 44.6115
Neighbor list builds = 800
Dangerous builds = 800

unfix 				temp_rescale
unfix 				2



# ------------------------- STEP 4b: COOLING 600 - 400 -------------------------

print "******************** Decreasing temperature from 600 K to 400 K ********************"
******************** Decreasing temperature from 600 K to 400 K ********************

neighbor			0.5 bin
neigh_modify		every 10 delay 0 check yes

fix					3 all npt temp 400.0 400.0 0.1 iso 1 1 1 drag 0.2
fix					temp_rescale all temp/rescale 100 400 400 0.1 0.9

timestep 			0.001

run 				8000
Per MPI rank memory allocation (min/avg/max) = 43.81 | 43.81 | 43.81 Mbytes
Step PotEng KinEng TotEng Temp Press Volume Density CPU 
   38000   -2265849.7    8425.6552     -2257424    603.55842   -55.117192     19371735   0.24979195            0 
   38100     -2266904    5894.0532   -2261009.9    422.21113   -187.03682     19337036   0.25024019    3.2169991 
   38200     -2269107    5763.0359   -2263343.9    412.82592   -102.93479     19280739   0.25097085    6.2975371 
   38300     -2270564    5694.5038   -2264869.5    407.91673   -162.31882     19234839   0.25156974    9.1079271 
   38400   -2271638.3    5660.7595   -2265977.6    405.49951    -64.16881     19186220   0.25220723    11.913266 
   38500   -2272471.8    5641.0078   -2266830.8    404.08462   -1.4206074     19146481   0.25273069     14.71051 
   38600   -2273336.5    5646.6955   -2267689.8    404.49206   -39.999203     19099719   0.25334946    17.512108 
   38700   -2274071.7    5636.3684   -2268435.4    403.75229   -111.54077     19052110   0.25398254    20.314932 
   38800   -2274689.7    5627.2322   -2269062.4    403.09784   -131.32172     19015025   0.25447788    23.119848 
   38900   -2275317.6    5627.8871   -2269689.7    403.14474    -137.0216     18974219   0.25502517    25.926719 
   39000   -2276048.3    5637.3974   -2270410.9      403.826   -171.07942     18929716   0.25562473    28.737433 
   39100   -2276695.5    5631.3738   -2271064.1    403.39451   -6.8841783     18882699   0.25626121    31.533681 
   39200   -2277299.5    5627.0396   -2271672.5    403.08404    15.626266     18833864   0.25692569    34.333071 
   39300   -2277975.4    5634.8472   -2272340.5    403.64332   -138.16373     18792879     0.257486    37.136262 
   39400   -2278689.6    5636.8255   -2273052.8    403.78503   -23.596139     18744566   0.25814967    39.942853 
   39500   -2279455.5    5641.9949   -2273813.5    404.15534   -145.77294     18705679   0.25868632    42.754747 
   39600   -2280117.8     5632.434   -2274485.3    403.47046   -79.091705     18665732   0.25923995     45.57548 
   39700   -2280815.8     5634.659   -2275181.1    403.62984   -57.959136     18623403   0.25982917    48.396036 
   39800   -2281575.8    5641.0731   -2275934.7    404.08931   -179.54923     18591524   0.26027471    51.220056 
   39900   -2282403.5    5645.9277   -2276757.6    404.43705    57.901869     18544349   0.26093682    54.048358 
   40000   -2283303.4    5652.4618     -2277651    404.90511   -116.91297     18507734   0.26145304    56.885711 
   40100   -2284119.4    5645.0316   -2278474.4    404.37286   -49.137748     18476836   0.26189025    59.709133 
   40200   -2284954.3    5645.9124   -2279308.4    404.43596    49.289798     18448716   0.26228944    62.912941 
   40300   -2285857.6    5653.0505   -2280204.5    404.94729     -182.486     18417578   0.26273289    66.133912 
   40400   -2286699.6    5646.6319     -2281053     404.4875    -46.80882     18376207   0.26332439    69.153089 
   40500   -2287596.3    5651.2086   -2281945.1    404.81535     -86.8846     18339101   0.26385718    72.185905 
   40600     -2288468    5648.7957   -2282819.2     404.6425   -8.5749429     18312011   0.26424751     75.20903 
   40700   -2289375.2    5652.1866     -2283723     404.8854   -82.149866     18285702   0.26462771    78.121017 
   40800   -2290176.2     5643.624   -2284532.5    404.27204   -48.220436     18256885   0.26504541     81.12046 
   40900   -2291028.5    5648.0399   -2285380.4    404.58836   -62.402223     18216583   0.26563178    83.991463 
   41000   -2291803.5    5641.5909   -2286161.9    404.12639    -33.03526     18172048   0.26628277     86.86254 
   41100     -2292536    5637.1432   -2286898.8    403.80779    4.8897489     18133733   0.26684541     89.72289 
   41200   -2293293.1    5639.5324   -2287653.5    403.97894   -88.745781     18089447   0.26749869    92.588774 
   41300   -2294017.9    5637.1604   -2288380.7    403.80902   -57.810046     18046113   0.26814104    95.496216 
   41400   -2294908.4    5651.8608   -2289256.5    404.86206   -99.593754     17998225   0.26885448    98.410821 
   41500   -2295799.2    5651.9449   -2290147.2    404.86809   -74.906231     17958585   0.26944793    101.33007 
   41600   -2296580.8    5641.0028   -2290939.8    404.08427   -35.836944     17921309   0.27000837     104.2587 
   41700   -2297412.4    5645.2086   -2291767.2    404.38554   -142.13932     17884601   0.27056256    107.18612 
   41800   -2298189.4    5641.0405   -2292548.4    404.08697   -103.44189     17849368   0.27109663    110.11723 
   41900   -2299076.2    5650.1969     -2293426    404.74287   -69.308779     17805065   0.27177117    113.05337 
   42000   -2299881.2    5643.9853   -2294237.2    404.29791   -93.053155     17767610   0.27234408    115.99557 
   42100   -2300682.8    5643.7597     -2295039    404.28176   -22.377321     17726069   0.27298232    118.90301 
   42200   -2301486.8    5643.5929   -2295843.2     404.2698   -81.953113     17688301   0.27356519    122.27356 
   42300   -2302254.1    5641.6826   -2296612.5    404.13297   -106.27341     17655187   0.27407829    125.61569 
   42400   -2303053.9    5643.5248   -2297410.4    404.26492   -107.44833     17611829   0.27475303    128.76498 
   42500   -2303843.5    5642.3437   -2298201.2    404.18032   -108.31637     17577486   0.27528985    131.89459 
   42600   -2304562.6    5635.8941   -2298926.7    403.71831   -135.24016     17549196   0.27573363    135.02903 
   42700   -2305290.8    5637.5439   -2299653.3    403.83649   -154.93783     17528052   0.27606624    138.16739 
   42800   -2306171.3    5650.3779   -2300520.9    404.75584   -126.90612     17490828   0.27665376     141.2762 
   42900     -2307046    5649.3677   -2301396.6    404.68347   -78.924396     17452733   0.27725764    144.24222 
   43000   -2307849.9    5642.5464   -2302207.3    404.19484   -44.100747     17417657   0.27781597    147.21605 
   43100   -2308664.7    5644.5524   -2303020.2    404.33854   -120.90825     17383262   0.27836568    150.18485 
   43200   -2309502.2    5646.3179   -2303855.9    404.46501   -86.211202     17348557   0.27892252    153.15843 
   43300   -2310243.3    5637.2323   -2304606.1    403.81417   -134.66414     17311567   0.27951851    156.13694 
   43400   -2311140.9    5650.4953   -2305490.4    404.76424   -8.5344581     17272128   0.28015677    159.12051 
   43500   -2311983.7    5646.4097   -2306337.3    404.47158    -97.02705     17234368   0.28077058     162.1095 
   43600   -2312808.2    5644.7737   -2307163.4    404.35439   -43.793245     17199783   0.28133514    165.10777 
   43700   -2313677.1    5649.5201   -2308027.6    404.69439   -73.740999     17161931   0.28195565    168.10694 
   43800   -2314592.8    5652.9539   -2308939.9    404.94037   -190.28536     17117970   0.28267975    171.11055 
   43900   -2315403.3    5643.9165   -2309759.3    404.29299   -144.11173     17082467   0.28326724    174.11765 
   44000   -2316493.4    5668.6382   -2310824.7    406.06389   -338.09822     17027832   0.28417613     177.1285 
   44100     -2317754    5683.2003   -2312070.8    407.10702   -99.342738     16965880   0.28521381    180.32475 
   44200   -2318988.9    5680.8824     -2313308    406.94098   -98.675293     16930365   0.28581212    183.77869 
   44300     -2320015    5661.4502   -2314353.6    405.54898   -58.471599     16900642   0.28631477    187.06891 
   44400   -2321019.3     5658.309     -2315361    405.32397   -164.81114     16874879    0.2867519    190.08682 
   44500   -2322040.8    5659.4031   -2316381.4    405.40235   -155.71186     16828407   0.28754376    193.09863 
   44600   -2323105.3    5663.7276   -2317441.6    405.71213    -154.7822     16778506   0.28839895    196.11606 
   44700   -2324224.3    5668.9163   -2318555.4    406.08381    -94.63988     16732539   0.28919123    199.13886 
   44800   -2325417.3    5676.0869   -2319741.2    406.59746   -105.53089     16686198   0.28999436     202.1674 
   44900   -2326481.1    5663.5701   -2320817.5    405.70084   -31.226736     16649161   0.29063948    205.20238 
   45000   -2327484.6     5659.019   -2321825.6    405.37483   -117.33067     16620007   0.29114931    208.24387 
   45100   -2328618.4    5669.2784   -2322949.1    406.10975   -45.096936     16579463   0.29186128     211.2691 
   45200     -2329697    5665.8947   -2324031.1    405.86736   -3.1343933     16537218   0.29260685    214.29953 
   45300   -2330724.9    5660.7604   -2325064.1    405.49957    12.133563     16495132   0.29335342    217.33442 
   45400   -2331880.3    5671.3497   -2326208.9    406.25812    63.287965     16451664    0.2941285    220.37349 
   45500   -2332987.8    5668.2417   -2327319.6    406.03549   -67.272441     16417121   0.29474738    223.41769 
   45600   -2334157.2    5673.8161   -2328483.4    406.43479   -131.78033     16372297   0.29555433    226.47056 
   45700   -2335277.2    5669.4361   -2329607.7    406.12104   -173.26226     16323774   0.29643289    229.52441 
   45800   -2336377.5    5667.1582   -2330710.3    405.95787   -28.753054     16275433   0.29731334    232.58576 
   45900   -2337425.2    5663.5496   -2331761.6    405.69937   -157.85507     16242715   0.29791222    235.65106 
   46000   -2338343.6    5653.2784   -2332690.3    404.96361   -299.41191     16215334   0.29841528     238.6733 
Loop time of 238.673 on 2 procs for 8000 steps with 108000 atoms

Performance: 2.896 ns/day, 8.287 hours/ns, 33.519 timesteps/s
99.5% CPU use with 2 MPI tasks x 1 OpenMP threads

MPI task timing breakdown:
Section |  min time  |  avg time  |  max time  |%varavg| %total
---------------------------------------------------------------
Pair    | 181.7      | 184.57     | 187.43     |  21.1 | 77.33
Neigh   | 29.689     | 30.121     | 30.554     |   7.9 | 12.62
Comm    | 2.279      | 5.5708     | 8.8626     | 139.5 |  2.33
Output  | 6.9094     | 6.9098     | 6.9101     |   0.0 |  2.90
Modify  | 10.597     | 10.611     | 10.626     |   0.4 |  4.45
Other   |            | 0.8935     |            |       |  0.37

Nlocal:    54000 ave 54297 max 53703 min
Histogram: 1 0 0 0 0 0 0 0 0 1
Nghost:    19771 ave 19828 max 19714 min
Histogram: 1 0 0 0 0 0 0 0 0 1
Neighs:    2.65996e+06 ave 2.69954e+06 max 2.62038e+06 min
Histogram: 1 0 0 0 0 0 0 0 0 1

Total # of neighbors = 5319923
Ave neighs/atom = 49.2585
Neighbor list builds = 800
Dangerous builds = 800

unfix 				temp_rescale
unfix 				3



# ------------------------- STEP 4c: COOLING 400 - 300 -------------------------

print "******************** Decreasing temperature from 400 K to 300 K ********************"
******************** Decreasing temperature from 400 K to 300 K ********************

neighbor			0.5 bin
neigh_modify		every 10 delay 0 check yes

fix					4 all npt temp 300.0 300.0 0.1 iso 1 1 1 drag 0.2
fix					temp_rescale all temp/rescale 100 300 300 0.1 0.9

timestep 			0.001

run 				8000	# 10000 or 15000
Per MPI rank memory allocation (min/avg/max) = 44.58 | 44.77 | 44.96 Mbytes
Step PotEng KinEng TotEng Temp Press Volume Density CPU 
   46000   -2338343.6    5653.2784   -2332690.3    404.96361   -299.41191     16215334   0.29841528            0 
   46100   -2339444.9    4393.9462   -2335050.9    314.75335   -417.77233     16173373    0.2991895     3.553545 
   46200   -2341174.7    4329.3747   -2336845.3    310.12787   -292.31022     16116905   0.30023776    6.9918809 
   46300   -2342475.2    4288.4008   -2338186.8    307.19277   -234.76488     16072194   0.30107299    10.097017 
   46400   -2343592.2    4273.3582   -2339318.9    306.11522   -208.20625     16027221    0.3019178    13.178616 
   46500   -2344665.6    4268.6836   -2340396.9    305.78036   -220.47116     15961809   0.30315507    16.295411 
   46600   -2345573.1    4255.6188   -2341317.5    304.84449   -219.49642     15912332   0.30409769    19.435675 
   46700   -2346457.8    4254.5099   -2342203.3    304.76505   -221.49362     15873581   0.30484005    22.580614 
   46800   -2347215.4    4243.5696   -2342971.8    303.98136   -105.16488     15828614   0.30570607    25.729362 
   46900   -2348126.2    4257.8855   -2343868.4    305.00686   -226.24844     15769151   0.30685884    28.883414 
   47000   -2349016.2    4254.2333   -2344761.9    304.74524   -134.17814     15709584   0.30802237    32.045877 
   47100   -2350052.6    4267.3744   -2345785.2    305.68658    -222.8202     15659449   0.30900854    35.191909 
   47200   -2351162.2    4274.7453   -2346887.4    306.21459   -137.12867     15615155   0.30988506    38.344644 
   47300   -2352258.8    4273.8359     -2347985    306.14944   -237.05119     15571932   0.31074522    41.503209 
   47400   -2353254.9    4265.2739   -2348989.6    305.53612   -164.51736     15539936   0.31138504     44.66723 
   47500   -2354256.8    4265.0292   -2349991.8    305.51859   -162.27084     15505274   0.31208113    47.839673 
   47600   -2355284.8    4267.2916   -2351017.5    305.68065    -115.1424     15464679   0.31290035    51.010412 
   47700   -2356111.3    4249.8869   -2351861.4    304.43389   -253.67811     15427830   0.31364769    54.184062 
   47800   -2357115.3    4265.8342   -2352849.5    305.57625   -232.08746     15380753   0.31460771    57.361427 
   47900   -2358080.6    4262.6929   -2353817.9    305.35123   -215.03439     15328088   0.31568866    60.527848 
   48000     -2358948    4253.1137   -2354694.9    304.66504   -83.369448     15283417   0.31661137    64.242868 
   48100   -2359895.1    4261.0898     -2355634    305.23639   -110.88669     15236637   0.31758343    67.768727 
   48200   -2360819.9    4258.8411   -2356561.1    305.07531   -142.46192     15182061   0.31872507    71.042133 
   48300   -2361902.1    4272.5157   -2357629.6    306.05487   -300.09245     15124256   0.31994323    74.238798 
   48400   -2362987.1     4272.177     -2358715    306.03061   -236.47802     15061702   0.32127201    77.436261 
   48500   -2364250.4    4287.8649   -2359962.6    307.15439   -255.18187     14996326   0.32267259    80.631714 
   48600   -2365511.4     4287.371     -2361224    307.11901   -35.101235     14934815   0.32400156    83.825243 
   48700   -2366763.1    4286.0301   -2362477.1    307.02295   -195.56188     14886552   0.32505199    87.025663 
   48800   -2368189.8     4301.155   -2363888.6     308.1064   -187.04624     14841545   0.32603771    90.232917 
   48900   -2369621.6    4301.2609   -2365320.3    308.11399   -200.56294     14803445   0.32687684    93.447222 
   49000   -2370873.1    4284.9226   -2366588.1    306.94362   -129.70621     14768455    0.3276513     96.66927 
   49100   -2371952.7    4271.0332   -2367681.7    305.94867   -318.44663     14753174   0.32799068    99.871515 
   49200   -2373018.1    4269.8879   -2368748.2    305.86664   -183.15495     14712971   0.32888691    103.07919 
   49300   -2374020.5    4265.2553   -2369755.2    305.53478   -124.53981     14666845   0.32992123    106.29587 
   49400   -2374911.9    4255.4471   -2370656.4    304.83219   -190.63298     14626030   0.33084189    109.51404 
   49500   -2375905.8    4263.8202   -2371641.9    305.43198   -212.81585     14582907   0.33182023    112.73904 
   49600   -2376819.2    4257.3022   -2372561.9    304.96508   -245.28732     14545826   0.33266612    115.96993 
   49700     -2377804    4263.8093   -2373540.2     305.4312   -242.91859     14498999   0.33374052    119.14141 
   49800   -2378837.6    4267.6733   -2374569.9    305.70799    -271.3658     14451283   0.33484248    122.69276 
   49900   -2379802.6    4262.8287   -2375539.7    305.36096   -313.52428     14412724    0.3357383    126.36375 
   50000     -2380706    4255.6379   -2376450.4    304.84585   -171.80636     14365498   0.33684203     129.9182 
   50100   -2381695.8    4264.1285   -2377431.7    305.45406   -217.61244     14325440   0.33778392    133.37307 
   50200   -2382783.6    4273.5421   -2378510.1     306.1284   -200.07282     14289307   0.33863807    136.83667 
   50300   -2383744.1    4261.3799   -2379482.8    305.25717   -252.21589     14251618   0.33953361    140.30581 
   50400     -2384527    4245.5711   -2380281.4    304.12473   -259.87313     14213499    0.3404442    143.78216 
   50500   -2385583.2     4270.008   -2381313.2    305.87524   -298.22475     14154153   0.34187163    147.26314 
   50600   -2386625.8    4268.3862   -2382357.4    305.75906   -135.10979     14091004   0.34340373    150.55253 
   50700   -2387743.4    4274.8175   -2383468.6    306.21976   -172.82684     14037044   0.34472382    153.89464 
   50800   -2388901.5    4278.8465   -2384622.7    306.50837   -232.78926     13990875   0.34586139    157.24528 
   50900   -2390208.5    4292.7274   -2385915.8    307.50271   -159.60298     13946018   0.34697384     160.6025 
   51000   -2391487.4       4289.4     -2387198    307.26435    -189.0612     13895651    0.3482315    163.96851 
   51100   -2392698.6     4282.366   -2388416.3    306.76048   -187.12363     13854118   0.34927546    167.32353 
   51200   -2393857.4    4278.8165   -2389578.5    306.50622   -177.54584     13812072   0.35033871    170.68332 
   51300   -2395078.1      4283.16     -2390795    306.81736    -340.4457     13762587    0.3515984    174.05273 
   51400   -2396368.6    4290.2984   -2392078.3     307.3287   -330.69723     13710843   0.35292531    177.43127 
   51500   -2397574.4    4280.9125   -2393293.5    306.65636   -179.72708     13660120   0.35423579    180.92396 
   51600   -2398847.7    4287.1254   -2394560.6    307.10141   -232.20332     13617019   0.35535704    184.88185 
   51700   -2400129.8    4289.3422   -2395840.4    307.26021   -313.48041     13572413   0.35652492    188.65344 
   51800   -2401500.2     4296.185     -2397204    307.75039   -343.61045     13516408   0.35800216    192.23421 
   51900     -2402830    4291.8123   -2398538.2    307.43715     -261.789     13457914    0.3595582    195.67301 
   52000   -2404106.9    4288.1085   -2399818.8    307.17183   -236.10262     13404043   0.36100328    199.11516 
   52100   -2405694.6    4314.3281   -2401380.2    309.05003   -277.70379     13339164   0.36275912    202.55138 
   52200   -2407133.6    4303.1726   -2402830.4    308.25093    -230.6072     13283484    0.3642797    205.99649 
   52300   -2408601.8    4304.1611   -2404297.6    308.32174   -397.95802     13227478   0.36582206    209.44912 
   52400   -2410171.6    4312.4076   -2405859.2    308.91247   -177.69371     13163908   0.36758866    212.90285 
   52500   -2411733.9    4311.9642     -2407422     308.8807   -199.51294     13110277   0.36909238    216.35459 
   52600   -2413104.3    4295.0208   -2408809.2    307.66699   -199.76084     13069798   0.37023551    219.81426 
   52700   -2414678.3    4314.3462     -2410364    309.05133   -405.00563     13014426   0.37181075    223.28292 
   52800   -2416042.9    4294.4993   -2411748.4    307.62963   -515.84934     12951418    0.3736196    226.76338 
   52900   -2417498.3    4301.5933   -2413196.7     308.1378   -439.83051     12885967    0.3755173    230.24915 
   53000   -2419043.3    4309.7239   -2414733.6    308.72022   -403.44499     12819225   0.37747239    233.74571 
   53100   -2420661.6    4317.8276   -2416343.7    309.30072   -476.94199     12767216   0.37901007    237.21801 
   53200     -2422199    4309.9719     -2417889    308.73799   -364.05888     12698314   0.38106662     240.7514 
   53300   -2423817.4    4315.4754   -2419501.9    309.13222   -336.08726     12623327   0.38333029    244.84648 
   53400     -2425644    4334.7771   -2421309.2    310.51486   -413.45247     12557449   0.38534128    248.58754 
   53500   -2427345.5    4323.8546   -2423021.7    309.73245   -310.09293     12503560   0.38700206    252.15192 
   53600   -2428786.6    4301.5751     -2424485    308.13649     -343.944     12469989   0.38804391    255.68328 
   53700   -2430496.9    4324.1678   -2426172.7    309.75488   -411.50149     12417134   0.38969567    259.22328 
   53800     -2432150    4319.9204   -2427830.1    309.45063   -461.92014     12358940    0.3915306     262.7744 
   53900   -2433680.6    4308.9594   -2429371.7    308.66546   -462.95147     12312258    0.3930151     266.3516 
   54000   -2435386.2     4323.825   -2431062.3    309.73033   -345.87369     12253156   0.39491078    269.97058 
Loop time of 269.971 on 2 procs for 8000 steps with 108000 atoms

Performance: 2.560 ns/day, 9.374 hours/ns, 29.633 timesteps/s
99.5% CPU use with 2 MPI tasks x 1 OpenMP threads

MPI task timing breakdown:
Section |  min time  |  avg time  |  max time  |%varavg| %total
---------------------------------------------------------------
Pair    | 203.81     | 208.49     | 213.18     |  32.4 | 77.23
Neigh   | 34.423     | 35.177     | 35.932     |  12.7 | 13.03
Comm    | 2.3559     | 7.8074     | 13.259     | 195.1 |  2.89
Output  | 6.9748     | 6.9752     | 6.9755     |   0.0 |  2.58
Modify  | 10.597     | 10.606     | 10.615     |   0.3 |  3.93
Other   |            | 0.91       |            |       |  0.34

Nlocal:    54000 ave 54501 max 53499 min
Histogram: 1 0 0 0 0 0 0 0 0 1
Nghost:    21905.5 ave 22072 max 21739 min
Histogram: 1 0 0 0 0 0 0 0 0 1
Neighs:    3.05304e+06 ave 3.14249e+06 max 2.96358e+06 min
Histogram: 1 0 0 0 0 0 0 0 0 1

Total # of neighbors = 6106071
Ave neighs/atom = 56.5377
Neighbor list builds = 800
Dangerous builds = 800

unfix				temp_rescale
unfix 				4



# ------------------------- STEP 5: EQUILIBRATION 2 -------------------------

print "******************** Equilibration at 300 K ********************"
******************** Equilibration at 300 K ********************

fix					equilibration2 all nve
fix					temp_rescale all temp/rescale 100 300 300 0.1 0.9

timestep 			0.001

run					10000
Per MPI rank memory allocation (min/avg/max) = 46.12 | 46.51 | 46.89 Mbytes
Step PotEng KinEng TotEng Temp Press Volume Density CPU 
   54000   -2435386.2     4323.825   -2431062.3    309.73033   -345.87369     12253156   0.39491078            0 
   54100   -2436977.1     4353.272   -2432623.8    311.83972   -206.90658     12253156   0.39491078     3.489594 
   54200   -2438829.8    4381.3331   -2434448.5    313.84983   -2.7162594     12253156   0.39491078     6.993727 
   54300     -2440953    4410.3549   -2436542.7    315.92876   -7.7831232     12253156   0.39491078    10.511059 
   54400   -2443181.1    4423.4173   -2438757.7    316.86447   -320.18424     12253156   0.39491078    14.041681 
   54500     -2445307    4415.1214   -2440891.8    316.27021    80.185013     12253156   0.39491078    17.591477 
   54600   -2447220.8    4394.8585     -2442826    314.81871     -42.1408     12253156   0.39491078    21.150144 
   54700   -2448958.5    4375.8392   -2444582.6    313.45629   -162.47459     12253156   0.39491078    24.721503 
   54800     -2450862    4389.8278   -2446472.1    314.45833   -77.556873     12253156   0.39491078    28.296021 
   54900   -2452654.8    4379.6821   -2448275.1    313.73156    94.196901     12253156   0.39491078    32.208938 
   55000   -2454515.2    4386.7533   -2450128.4     314.2381   -227.89011     12253156   0.39491078    36.421659 
   55100   -2456173.4    4366.4831   -2451806.9    312.78608    183.65726     12253156   0.39491078    40.239725 
   55200   -2457723.9    4356.0249   -2453367.8    312.03692   -362.20293     12253156   0.39491078    44.066118 
   55300     -2459244    4350.9462     -2454893    311.67311    92.734173     12253156   0.39491078    47.903061 
   55400     -2460850     4358.806   -2456491.2    312.23614   -354.33245     12253156   0.39491078    51.605529 
   55500     -2462477    4360.5888   -2458116.4    312.36385   -83.453278     12253156   0.39491078    55.245269 
   55600   -2464037.1    4354.9879   -2459682.1    311.96263   -175.19097     12253156   0.39491078    58.889866 
   55700   -2465682.3    4362.9502   -2461319.4      312.533    33.828275     12253156   0.39491078    62.544401 
   55800   -2467190.8    4350.0471   -2462840.7    311.60871   -239.78887     12253156   0.39491078    66.207115 
   55900   -2468847.7    4363.7744   -2464483.9    312.59204   -163.71674     12253156   0.39491078    69.878266 
   56000   -2470374.6    4351.7029   -2466022.9    311.72732   -89.533148     12253156   0.39491078    73.561692 
   56100   -2471870.8    4348.1951   -2467522.6    311.47604   -319.71518     12253156   0.39491078    77.243221 
   56200   -2473487.3    4358.3684   -2469128.9    312.20479   -40.542151     12253156   0.39491078    80.931377 
   56300   -2475224.2    4372.5471   -2470851.7    313.22046   -182.94068     12253156   0.39491078    84.629499 
   56400     -2476887    4365.8743   -2472521.1    312.74246   -232.31836     12253156   0.39491078     88.32641 
   56500   -2478575.5    4367.7191   -2474207.8    312.87461   -164.08053     12253156   0.39491078    92.403438 
   56600   -2480165.9    4357.9531     -2475808    312.17504   -186.58346     12253156   0.39491078    96.681996 
   56700   -2481692.2    4351.6307   -2477340.5    311.72214   -46.251415     12253156   0.39491078    100.72749 
   56800   -2483235.8    4352.2613   -2478883.5    311.76732   -101.21463     12253156   0.39491078    104.69919 
   56900   -2484727.7     4347.922   -2480379.8    311.45648   -215.46211     12253156   0.39491078     108.6041 
   57000   -2486193.1    4344.1621   -2481848.9    311.18715   -33.624318     12253156   0.39491078    112.36173 
   57100   -2487582.1    4337.3977   -2483244.7    310.70259   -3.8256441     12253156   0.39491078    116.11284 
   57200   -2488923.7    4332.2677   -2484591.5    310.33511    10.987845     12253156   0.39491078    119.87083 
   57300   -2490071.9    4313.5162   -2485758.4    308.99188   -189.26303     12253156   0.39491078    123.63543 
   57400   -2491371.1    4325.6804   -2487045.4    309.86324   -205.91066     12253156   0.39491078    127.40556 
   57500     -2492559    4315.8158   -2488243.1     309.1566    -219.1599     12253156   0.39491078    131.18139 
   57600   -2493543.1    4294.7855   -2489248.3    307.65013    84.849028     12253156   0.39491078    134.96168 
   57700   -2494508.6    4291.8751   -2490216.7    307.44165    -78.57754     12253156   0.39491078    138.75144 
   57800   -2495430.5    4287.1084   -2491143.4     307.1002    62.139727     12253156   0.39491078    142.54086 
   57900   -2496250.5     4276.432   -2491974.1    306.33541   -113.16281     12253156   0.39491078    146.33479 
   58000   -2497035.2    4271.8646   -2492763.3    306.00823   -118.43879     12253156   0.39491078    150.09971 
   58100   -2497790.1    4268.4659   -2493521.6    305.76477  -0.49508081     12253156   0.39491078     154.4374 
   58200   -2498675.4    4280.6893   -2494394.7    306.64037   -40.035198     12253156   0.39491078    158.62238 
   58300   -2499627.5    4288.0767   -2495339.4    307.16956   -98.941927     12253156   0.39491078    162.66451 
   58400   -2500719.5    4303.0385   -2496416.5    308.24132   -255.55525     12253156   0.39491078    166.69275 
   58500   -2501800.8    4302.5293   -2497498.3    308.20485    -22.45624     12253156   0.39491078    170.51442 
   58600   -2502965.1    4310.9985   -2498654.1    308.81153   -208.68611     12253156   0.39491078    174.34163 
   58700   -2504091.5    4308.3291   -2499783.2    308.62031   -63.160072     12253156   0.39491078     178.1758 
   58800   -2505298.4    4315.8278   -2500982.6    309.15747   -165.73173     12253156   0.39491078    182.01675 
   58900   -2506285.7    4295.7442   -2501989.9    307.71881   -92.017477     12253156   0.39491078    185.86527 
   59000   -2507272.1    4293.4133   -2502978.7    307.55183    14.901512     12253156   0.39491078    189.72161 
   59100   -2508254.5    4293.4975     -2503961    307.55787   -24.074889     12253156   0.39491078    193.57025 
   59200   -2509259.7    4294.5946   -2504965.1    307.63646   -2.1096034     12253156   0.39491078    197.42843 
   59300   -2510274.3    4295.9735   -2505978.4    307.73524   -6.8897411     12253156   0.39491078    201.28648 
   59400   -2511214.4    4289.3489     -2506925    307.26069   -96.047874     12253156   0.39491078    205.14995 
   59500   -2512194.9    4291.5484   -2507903.3    307.41825    65.296645     12253156   0.39491078    208.97182 
   59600   -2513120.5    4287.2072   -2508833.3    307.10727    -220.5035     12253156   0.39491078    213.33142 
   59700   -2514032.6    4285.3597   -2509747.3    306.97493    38.416289     12253156   0.39491078    217.63555 
   59800     -2514863    4277.4815   -2510585.5    306.41059    7.8849343     12253156   0.39491078     221.5297 
   59900     -2515690    4276.4835   -2511413.5     306.3391   -173.05233     12253156   0.39491078    225.41419 
   60000   -2516357.2    4261.0791   -2512096.1    305.23563   -129.24299     12253156   0.39491078    229.30343 
   60100   -2516977.2    4253.9223   -2512723.3    304.72296     258.8082     12253156   0.39491078    233.18378 
   60200   -2517717.2    4266.1168   -2513451.1    305.59649   -224.95963     12253156   0.39491078    237.06771 
   60300     -2518410    4261.9773     -2514148    305.29997    32.887097     12253156   0.39491078     240.8328 
   60400   -2519177.2    4268.6282   -2514908.5    305.77639   -199.67302     12253156   0.39491078    244.47688 
   60500   -2520055.1    4279.4299   -2515775.7    306.55015    143.30047     12253156   0.39491078    248.27785 
   60600   -2520894.4     4277.091   -2516617.3    306.38261   -21.073166     12253156   0.39491078    252.08455 
   60700   -2521759.6    4279.3711   -2517480.2    306.54594    57.892965     12253156   0.39491078    255.89693 
   60800   -2522676.9    4284.6518   -2518392.2    306.92422   -175.30621     12253156   0.39491078    259.71339 
   60900   -2523642.5    4290.1319   -2519352.3    307.31678   -119.58317     12253156   0.39491078    263.53532 
   61000   -2524656.8    4295.3158   -2520361.5    307.68812   -199.86177     12253156   0.39491078    267.33098 
   61100   -2525648.2    4292.8053   -2521355.3    307.50829    164.01827     12253156   0.39491078    271.37511 
   61200   -2526717.4    4300.8887   -2522416.5    308.08733    -61.47218     12253156   0.39491078    275.93941 
   61300   -2527849.6     4307.566   -2523542.1    308.56564   -138.25567     12253156   0.39491078    280.14129 
   61400     -2528917    4302.3803   -2524614.6    308.19418   -78.580052     12253156   0.39491078    284.14311 
   61500     -2529843    4288.2336   -2525554.7     307.1808   -48.841604     12253156   0.39491078    288.08916 
   61600   -2530691.1    4279.6103   -2526411.4    306.56308    61.250329     12253156   0.39491078    292.03723 
   61700   -2531478.2    4273.1342   -2527205.1    306.09918   -227.44783     12253156   0.39491078    295.98866 
   61800   -2532347.4     4279.237   -2528068.1    306.53634    119.41256     12253156   0.39491078    299.94303 
   61900   -2533150.4    4274.6039   -2528875.8    306.20446   -60.356215     12253156   0.39491078    303.90121 
   62000     -2533945    4273.1587   -2529671.8    306.10093   -35.531283     12253156   0.39491078    307.86133 
   62100   -2534662.2     4265.608   -2530396.6    305.56005    142.39132     12253156   0.39491078    311.81396 
   62200   -2535253.2     4252.459   -2531000.7    304.61814   -6.3923455     12253156   0.39491078    315.77043 
   62300   -2535757.9     4243.005   -2531514.9    303.94092   -191.75178     12253156   0.39491078    319.73419 
   62400   -2536312.1    4246.7414   -2532065.4    304.20857   -63.073142     12253156   0.39491078     323.6964 
   62500   -2536851.3    4245.2825     -2532606    304.10406   -7.8638701     12253156   0.39491078    327.66042 
   62600   -2537440.8     4249.971   -2533190.8    304.43991   -181.63446     12253156   0.39491078    331.88212 
   62700   -2537983.2    4245.7882   -2533737.5    304.14029    16.401465     12253156   0.39491078    336.43808 
   62800   -2538563.4     4248.952   -2534314.4    304.36692   -92.692184     12253156   0.39491078    340.61926 
   62900   -2539177.9    4252.8401     -2534925    304.64544   -29.144261     12253156   0.39491078    344.59627 
   63000   -2539791.1    4253.1602   -2535537.9    304.66837    18.212369     12253156   0.39491078    348.57852 
   63100   -2540563.5    4268.7754   -2536294.7    305.78694   -141.93899     12253156   0.39491078     352.5525 
   63200   -2541202.7    4256.5345   -2536946.1    304.91008   -69.388364     12253156   0.39491078    356.53197 
   63300   -2541988.7    4269.9506   -2537718.8    305.87112    7.6699249     12253156   0.39491078    360.46801 
   63400   -2542694.1    4263.2678   -2538430.9    305.39241    7.2436851     12253156   0.39491078    364.35015 
   63500   -2543443.2    4267.2773   -2539175.9    305.67962   -104.10246     12253156   0.39491078    368.30232 
   63600     -2544308    4278.7864   -2540029.2    306.50406   -176.25274     12253156   0.39491078    372.28589 
   63700   -2545159.5     4277.906   -2540881.5      306.441    63.889966     12253156   0.39491078    376.18669 
   63800   -2545970.8    4274.1382   -2541696.6     306.1711   -67.405858     12253156   0.39491078    380.08572 
   63900   -2546826.6     4278.392   -2542548.2    306.47581   -85.341321     12253156   0.39491078     383.9873 
   64000   -2547671.2    4277.3131   -2543393.8    306.39852   -36.095694     12253156   0.39491078     387.8933 
Loop time of 387.893 on 2 procs for 10000 steps with 108000 atoms

Performance: 2.227 ns/day, 10.775 hours/ns, 25.780 timesteps/s
99.5% CPU use with 2 MPI tasks x 1 OpenMP threads

MPI task timing breakdown:
Section |  min time  |  avg time  |  max time  |%varavg| %total
---------------------------------------------------------------
Pair    | 293.14     | 304.44     | 315.74     |  64.8 | 78.49
Neigh   | 51.593     | 53.351     | 55.109     |  24.1 | 13.75
Comm    | 3.1239     | 16.181     | 29.238     | 324.6 |  4.17
Output  | 8.6271     | 8.6276     | 8.6281     |   0.0 |  2.22
Modify  | 4.1233     | 4.1286     | 4.1338     |   0.3 |  1.06
Other   |            | 1.165      |            |       |  0.30

Nlocal:    54000 ave 54675 max 53325 min
Histogram: 1 0 0 0 0 0 0 0 0 1
Nghost:    21895.5 ave 22071 max 21720 min
Histogram: 1 0 0 0 0 0 0 0 0 1
Neighs:    3.51673e+06 ave 3.61442e+06 max 3.41905e+06 min
Histogram: 1 0 0 0 0 0 0 0 0 1

Total # of neighbors = 7033466
Ave neighs/atom = 65.1247
Neighbor list builds = 1000
Dangerous builds = 1000

unfix				temp_rescale
unfix				equilibration2



# ------------------------- STEP : INSTANTANEOUS EXPANSION/CONTRACTION -------------------------

# print "******************** Instantaneous contraction to required density ********************"
# timestep			0.0005
# fix				inst2 all nvt temp 300 300 0.05
# fix				inst1 all deform 1 x scale 0.79 y scale 0.79 z scale 0.79
# run				1000
# unfix				inst1
# unfix				inst2



# ------------------------- STEP : EQUILIBRATION 3 -------------------------

# print "******************** Equilibration at 300 K ********************"

# fix				equilibration3 all nve
# fix				temp_rescale all temp/rescale 100 300 300 0.1 0.9

# timestep 			0.001

# run				10000

# unfix				temp_rescale
# unfix				equilibration3



# ------------------------- STEP 6: MINIMIZATION -------------------------

print "******************** Energy minimization ********************"
******************** Energy minimization ********************

minimize 			0.01 0 1000 1000	# What does the last 1000 refer to?
WARNING: Using 'neigh_modify every 1 delay 0 check yes' setting during minimization (../min.cpp:168)
Per MPI rank memory allocation (min/avg/max) = 53.28 | 53.67 | 54.05 Mbytes
Step PotEng KinEng TotEng Temp Press Volume Density CPU 
   64000   -2547671.2    4277.3131   -2543393.8    306.39852   -36.095694     12253156   0.39491078            0 
   64001   -2550056.8    4277.3131   -2545779.4    306.39852    -1736.578     12253156   0.39491078   0.19979811 
Loop time of 0.19981 on 2 procs for 1 steps with 108000 atoms

99.3% CPU use with 2 MPI tasks x 1 OpenMP threads

Minimization stats:
  Stopping criterion = energy tolerance
  Energy initial, next-to-last, final = 
        -2547671.15038     -2547671.15038     -2550056.75859
  Force two-norm initial, final = 1118.55 599.056
  Force max component initial, final = 27.8368 29.1738
  Final line search alpha, max atom move = 0.00359237 0.104803
  Iterations, force evaluations = 1 1

MPI task timing breakdown:
Section |  min time  |  avg time  |  max time  |%varavg| %total
---------------------------------------------------------------
Pair    | 0.1126     | 0.11576    | 0.11893    |   0.9 | 57.94
Neigh   | 0          | 0          | 0          |   0.0 |  0.00
Comm    | 0.00045228 | 0.0036132  | 0.0067742  |   5.3 |  1.81
Output  | 0          | 0          | 0          |   0.0 |  0.00
Modify  | 0          | 0          | 0          |   0.0 |  0.00
Other   |            | 0.08043    |            |       | 40.25

Nlocal:    54000 ave 54675 max 53325 min
Histogram: 1 0 0 0 0 0 0 0 0 1
Nghost:    21895.5 ave 22071 max 21720 min
Histogram: 1 0 0 0 0 0 0 0 0 1
Neighs:    3.51673e+06 ave 3.61442e+06 max 3.41905e+06 min
Histogram: 1 0 0 0 0 0 0 0 0 1

Total # of neighbors = 7033466
Ave neighs/atom = 65.1247
Neighbor list builds = 0
Dangerous builds = 0
min_style			cg



# ------------------------- SIMULATION DONE -------------------------

print "******************** End ********************"
******************** End ********************
Total wall time: 0:23:33
