LAMMPS (12 Dec 2018)
  using 1 OpenMP thread(s) per MPI task
# Input file for Aluminium crystal

# Run command:  lmp -in in.aluminium



# ------------------------- ATOM INITIALIZATION -------------------------

units 			metal
dimension		3
boundary		p	p	p
atom_style		atomic

print "******************** Model initialized ********************"
******************** Model initialized ********************



# ------------------------- ATOM DEFINITION -------------------------

lattice			fcc 4.05
Lattice spacing in x,y,z = 4.05 4.05 4.05
region			whole block 0 30 0 30 0 30
region			crystal block 0 30 0 30 0 30
create_box		1 whole
Created orthogonal box = (0 0 0) to (121.5 121.5 121.5)
  1 by 1 by 2 MPI processor grid
create_atoms	1 region crystal
Created 108000 atoms
  Time spent = 0.00910401 secs

print "******************** Atoms generated ********************"
******************** Atoms generated ********************



# ------------------------- FORCE FIELDS / POTENTIAL -------------------------

pair_style		lj/cut 2.5
pair_coeff		* * .3920 2.62 2.5

# pair_style		eam/alloy
# pair_coeff		* * Al_Zhou04.eam.alloy Al

print "******************** Force field set ********************"
******************** Force field set ********************



# ------------------------- SETTINGS -------------------------

mass				1 26.982

thermo_style		custom step pe ke etotal temp press vol density cpu
thermo				100

dump			 	1 all custom 100 dump_loc_atom-108000_ts-15000 id type x y z

reset_timestep		0



# ------------------------- STEP 1: EQUILIBRATION -------------------------

print "******************** Equilibration at 300 K ********************"
******************** Equilibration at 300 K ********************

velocity 			all create 300.0 199 mom yes rot no dist gaussian

fix					equilibration all npt temp 300 300 0.1 iso 1 1 1 drag 0.2

timestep 			0.001

run					10000
Neighbor list info ...
  update every 1 steps, delay 10 steps, check yes
  max neighbors/atom: 2000, page size: 100000
  master list distance cutoff = 4.5
  ghost atom cutoff = 4.5
  binsize = 2.25, bins = 54 54 54
  1 neighbor lists, perpetual/occasional/extra = 1 0 0
  (1) pair lj/cut, perpetual
      attributes: half, newton on
      pair build: half/bin/atomonly/newton
      stencil: half/bin/3d/newton
      bin: standard
Per MPI rank memory allocation (min/avg/max) = 22.02 | 22.02 | 22.02 Mbytes
Step PotEng KinEng TotEng Temp Press Volume Density CPU 
       0            0    4187.9899    4187.9899          300    2493.9968    1793613.4     2.697852            0 
     100    2188.8055    4292.4312    6481.2367    307.48149    21401.856    1839247.7    2.6309145     0.476614 
     200    2272.8742    4699.5345    6972.4087    336.64368    21692.344    1895852.8    2.5523624    1.0120149 
     300    2246.3583    5006.6053    7252.9636    358.64021    21019.729    1950384.9    2.4809993    1.5767999 
     400    2269.0434    5207.6821    7476.7255    373.04403    20707.577    2004706.9     2.413771     2.115957 
     500    2248.7705    5326.4164    7575.1869    381.54937    20066.923    2058866.4    2.3502756    2.6175289 
     600    2176.0029    5422.9751     7598.978     388.4662    19047.828      2113343    2.2896915     3.117255 
     700    2107.9229    5477.3003    7585.2232     392.3577    18092.591    2168041.4    2.2319239    3.6173339 
     800    2052.9854    5505.3927     7558.378    394.37005    17277.335    2222645.7    2.1770917    4.1172659 
     900    1921.5817    5510.1002    7431.6819    394.70727    15942.584    2277178.5    2.1249557    4.6432688 
    1000    1837.1773    5489.3014    7326.4787    393.21738    14994.573    2331324.2     2.075603    5.3040779 
    1100    1734.6828    5482.4141    7217.0969    392.72402    13972.484    2384987.4     2.028901     5.814045 
    1200    1682.0049    5465.1325    7147.1374    391.48608    13320.334    2438466.7    1.9844041     6.326575 
    1300    1622.3484    5428.5232    7050.8716    388.86363    12627.599    2491562.8    1.9421158     6.833698 
    1400    1553.9662    5405.5176    6959.4838    387.21566    11947.432    2544216.8    1.9019226    7.3324749 
    1500    1487.4405    5378.9878    6866.4282    385.31524    11289.559    2596733.8    1.8634576    7.7869859 
    1600    1320.0909    5340.1678    6660.2587    382.53443    10055.928    2648896.3    1.8267621    8.2700799 
    1700    1333.0768    5287.7546    6620.8314     378.7799    9911.8281    2700771.6    1.7916744    8.7512319 
    1800    1274.3308    5259.8447    6534.1756    376.78062    9382.5366    2752688.8    1.7578825    9.2321169 
    1900    1230.9637    5220.9161    6451.8799    373.99203    8949.2424    2804421.4    1.7254552      9.70807 
    2000    1150.2219     5190.605    6340.8269    371.82074    8324.6361    2856100.8    1.6942341    10.181998 
    2100    1087.2805    5156.1964     6243.477    369.35593    7820.0781    2907629.4    1.6642092    10.647484 
    2200    1041.9377    5112.5024    6154.4401    366.22598    7426.0763    2959295.6    1.6351538    11.082821 
    2300    955.24343    5074.9963    6030.2398     363.5393    6832.2255    3010826.8    1.6071676    11.544742 
    2400    988.23778    5038.9381    6027.1759    360.95632    6887.5517    3062220.6    1.5801943    12.003514 
    2500    901.40878     4991.073    5892.4818    357.52758    6306.3116    3113700.4    1.5540684    12.439864 
    2600    878.05812    4969.8558    5847.9139    356.00772    6080.8899    3165212.6    1.5287767    12.897803 
    2700    837.49277    4940.6853    5778.1781    353.91814    5771.6542    3216976.6    1.5041774    13.354632 
    2800    850.46347    4913.9412    5764.4046    352.00236    5737.5834    3268634.1    1.4804053    13.786243 
    2900    798.16813    4890.5455    5688.7136    350.32645    5391.2496    3320609.5    1.4572335    14.240766 
    3000    761.34139    4865.9272    5627.2686    348.56296    5126.5621    3372704.8    1.4347249    14.695125 
    3100    729.74533    4846.7527    5576.4981    347.18943    4893.3425    3425080.3    1.4127854    15.116262 
    3200     753.6873    4814.0182    5567.7054    344.84454    4916.2052    3477505.6    1.3914869    15.554383 
    3300    692.85409    4781.5497    5474.4038    342.51871    4565.0087    3530168.4    1.3707288    15.994489 
    3400    665.97514    4758.0555    5424.0307    340.83574    4372.9677    3582910.5     1.350551    16.411041 
    3500    639.20205    4736.5468    5375.7488      339.295    4187.0278    3635910.4    1.3308643    16.848294 
    3600    654.94827    4713.4171    5368.3654    337.63814    4185.7421    3689351.6    1.3115864    17.262853 
    3700    610.19826      4706.31    5316.5083    337.12904    3933.6704    3743231.3    1.2927076    17.703257 
    3800    577.42806    4691.5859     5269.014     336.0743     3736.961    3797049.2    1.2743852    18.139108 
    3900    534.55912    4674.4018    5208.9609    334.84334    3501.9897      3851214    1.2564618    18.552826 
    4000    509.25459    4666.0406    5175.2952     334.2444    3345.6426    3906246.4    1.2387604    18.988238 
    4100    563.50347    4653.5207    5217.0242    333.34756    3515.4952    3961181.5    1.2215808    19.415425 
    4200     534.2023    4628.1517     5162.354    331.53029    3340.7291    4016633.1    1.2047163    19.813258 
    4300    494.21919    4615.3872    5109.6064    330.61593    3138.9317    4072227.8    1.1882693    20.235189 
    4400    500.37973    4599.0855    5099.4653    329.44818    3118.8262    4128262.8    1.1721403    20.639573 
    4500    506.45104    4579.0464    5085.4974    328.01271    3093.9702    4184703.8    1.1563312    21.062699 
    4600    492.00529    4565.8109    5057.8162    327.06461    2994.2919    4241512.7    1.1408438    21.463593 
    4700    465.01042    4556.5164    5021.5268    326.39881    2852.5074    4298622.7    1.1256869    21.885127 
    4800    458.62963     4538.025    4996.6546    325.07421    2784.7786    4355804.1    1.1109093    22.284472 
    4900    461.37167    4527.4907    4988.8624     324.3196    2758.2586    4413555.3    1.0963731    22.704653 
    5000    430.35086    4519.7596    4950.1105    323.76579     2609.862    4471976.3    1.0820503    23.103886 
    5100     417.9573    4510.1135    4928.0708    323.07481    2530.9378    4530549.1    1.0680611    23.514194 
    5200    418.55756    4493.2927    4911.8502    321.86988    2496.7809    4589507.6    1.0543404    23.901784 
    5300    407.91243    4478.4741    4886.3865    320.80837    2424.0087    4648797.2    1.0408936    24.309271 
    5400    374.41289    4480.1752    4854.5881    320.93023    2280.7253      4708840    1.0276211    24.697887 
    5500    397.67204    4461.6189     4859.291    319.60098    2324.4954    4768790.1    1.0147025    25.105593 
    5600     418.9909    4449.0301     4868.021     318.6992    2364.7978    4829465.9    1.0019541      25.4945 
    5700    363.95142    4445.5076     4809.459    318.44687    2153.9877    4890915.4   0.98936559    25.905141 
    5800    372.55796    4435.3516    4807.9095    317.71936    2151.4437    4952381.6   0.97708613    26.294258 
    5900    360.22809    4427.6627    4787.8908    317.16858    2086.5272    5014802.4   0.96492405    26.703006 
    6000    352.12975    4424.4408    4776.5706    316.93778    2034.1559    5077431.3   0.95302194    27.095556 
    6100    345.59948    4417.9613    4763.5607    316.47363    1987.8231      5140653   0.94130131    27.493984 
    6200    352.86424    4410.8115    4763.6757    315.96147    1984.0898      5204005    0.9298422    27.870367 
    6300    324.59067    4409.2002    4733.7908    315.84605    1874.2791    5267944.2   0.91855631    28.266819 
    6400    305.03998     4405.403     4710.443    315.57404    1793.1125    5332604.1   0.90741847    28.645795 
    6500    355.30657    4395.4896    4750.7962    314.86391    1917.6106    5397681.2   0.89647817    29.044153 
    6600    331.70535    4380.5251    4712.2304    313.79195    1823.3295    5463190.9   0.88572842    29.422579 
    6700    304.63635     4373.872    4678.5083    313.31537    1722.7297    5528973.2   0.87519024    29.820908 
    6800    298.88246    4367.0799    4665.9624    312.82883      1681.77    5595747.3   0.86474659    30.198901 
    6900    323.70442    4360.5316     4684.236    312.35975    1731.2041    5662780.1   0.85451021    30.595713 
    7000    277.61682    4356.0381    4633.6549    312.03787    1581.2061    5730414.1   0.84442474    30.973341 
    7100    278.97103    4350.5535    4629.5246    311.64499    1566.2971    5798708.7   0.83447948    31.363191 
    7200    278.87774    4347.0273     4625.905    311.39239    1547.9963    5867805.4   0.82465301    31.730789 
    7300    266.02374    4348.3686    4614.3924    311.48847    1494.9058    5937417.3   0.81498456    32.116177 
    7400    270.71511    4345.0666    4615.7817    311.25194    1488.8831    6006874.2   0.80556097    32.485161 
    7500     264.4064    4341.7074    4606.1138    311.01131    1456.2194    6077318.6   0.79622341    32.872702 
    7600    251.29364     4334.926    4586.2196    310.52553    1403.8954    6148340.7    0.7870259    33.241969 
    7700    242.43751    4329.6258    4572.0633    310.14586    1364.6314    6219895.1   0.77797187    33.629602 
    7800    262.76956    4321.3543    4584.1238    309.55334     1398.378    6291901.7    0.7690685    33.999307 
    7900    243.44801    4314.1756    4557.6236    309.03911    1332.3479    6364507.1   0.76029507     34.38691 
    8000    254.11865    4311.6749    4565.7936    308.85998    1342.9622    6438288.6   0.75158224    34.756683 
    8100    253.22217    4315.3063    4568.5285    309.12011    1326.2764      6512553   0.74301175    36.306676 
    8200    243.73194    4308.8581      4552.59     308.6582    1287.6288    6587165.9   0.73459565    36.666199 
    8300    235.10825    4304.0147    4539.1229    308.31125    1251.8588    6662492.8   0.72629023    37.043945 
    8400    271.60125    4296.6419    4568.2431    307.78311    1322.3456    6737972.5   0.71815422    37.405457 
    8500    228.08747    4302.0725    4530.1599    308.17212    1207.9324    6814707.4   0.71006767    37.769044 
    8600    212.26767    4300.7859    4513.0536    308.07996    1156.3945    6892015.1   0.70210284    38.146775 
    8700    217.88814    4296.1707    4514.0588    307.74936    1156.3702    6970125.7   0.69423474    38.510122 
    8800    222.79266    4289.2017    4511.9943    307.25014     1153.575    7048494.9   0.68651584    38.893568 
    8900    206.44832    4283.8512    4490.2995    306.86687    1101.3243    7127487.7    0.6789073    39.258752 
    9000    214.59958    4284.2989    4498.8984    306.89894     1109.005    7207481.9   0.67137226    39.643404 
    9100    203.46633    4280.1899    4483.6563     306.6046    1070.2044    7287865.5   0.66396717    40.016188 
    9200     191.5359     4281.333    4472.8689    306.68648    1034.1906    7369025.4   0.65665446    40.372788 
    9300    218.92004    4276.9774    4495.8974    306.37448    1080.8684      7450950   0.64943442    40.762277 
    9400    180.57643    4275.6709    4456.2473    306.28088    987.30001      7533551   0.64231376    41.138096 
    9500    203.49644    4275.8661    4479.3625    306.29487    1024.8054    7616961.4   0.63528002    41.554383 
    9600    174.52409    4271.7532    4446.2773    306.00025    952.50294    7700759.2   0.62836706    41.991603 
    9700    190.89442    4269.0944    4459.9888    305.80979    976.48677    7785656.9   0.62151511    42.425219 
    9800    171.59382     4269.178    4440.7719    305.81578    926.41277    7871026.7   0.61477411    42.861628 
    9900    188.47609    4264.2039    4452.6799    305.45946    949.57868    7956978.1   0.60813331    43.292373 
   10000    192.69984    4258.5198    4451.2197     305.0523    946.29657      8043648    0.6015807    43.722271 
Loop time of 43.7223 on 2 procs for 10000 steps with 108000 atoms

Performance: 19.761 ns/day, 1.215 hours/ns, 228.716 timesteps/s
97.0% CPU use with 2 MPI tasks x 1 OpenMP threads

MPI task timing breakdown:
Section |  min time  |  avg time  |  max time  |%varavg| %total
---------------------------------------------------------------
Pair    | 12.652     | 12.695     | 12.738     |   1.2 | 29.04
Neigh   | 5.6094     | 5.6234     | 5.6375     |   0.6 | 12.86
Comm    | 1.7339     | 1.7856     | 1.8373     |   3.9 |  4.08
Output  | 9.129      | 9.1294     | 9.1298     |   0.0 | 20.88
Modify  | 12.692     | 12.694     | 12.696     |   0.1 | 29.03
Other   |            | 1.795      |            |       |  4.11

Nlocal:    54000 ave 54003 max 53997 min
Histogram: 1 0 0 0 0 0 0 0 0 1
Nghost:    10283.5 ave 10294 max 10273 min
Histogram: 1 0 0 0 0 0 0 0 0 1
Neighs:    123180 ave 123239 max 123120 min
Histogram: 1 0 0 0 0 0 0 0 0 1

Total # of neighbors = 246359
Ave neighs/atom = 2.2811
Neighbor list builds = 263
Dangerous builds = 0

unfix				equilibration



# ------------------------- STEP 2: INCREASE TEMPERATURE -------------------------

print "******************** Increasing temperature to 700 K ********************"
******************** Increasing temperature to 700 K ********************

neighbor			0.5 bin
neigh_modify		every 10 delay 0 check yes

velocity			all create 700.0 199 mom yes rot yes dist gaussian

fix					inc_temp all npt temp 700.0 700.0 0.1 iso 1 1 1 drag 0.2

timestep 			0.001

run 				10000
Per MPI rank memory allocation (min/avg/max) = 27.28 | 27.29 | 27.29 Mbytes
Step PotEng KinEng TotEng Temp Press Volume Density CPU 
   10000    192.69984    9771.9765    9964.6763          700    1678.4296      8043648    0.6015807            0 
   10100    394.05005    9763.6562    10157.706    699.40399     2032.632    8150515.5   0.59369292   0.43036389 
   10200    375.79044    9783.5203    10159.311    700.82692    1972.4482    8270440.5   0.58508412   0.88030791 
   10300    374.28345    9815.2561     10189.54    703.10027    1948.6263    8376964.1   0.57764404    1.3138149 
   10400    369.26145    9784.4778    10153.739    700.89551    1910.9254    8480697.7   0.57057846    1.7486179 
   10500    341.65038    9783.5463    10125.197    700.82879    1838.9266    8582265.3    0.5638259    2.2050679 
   10600    355.78084    9787.9288     10143.71    701.14272    1843.3934    8683147.9   0.55727525    2.6414828 
   10700    392.46886    9779.6256    10172.094    700.54793    1885.9893      8783498   0.55090847    3.0793669 
   10800    339.83312    9782.2756    10122.109    700.73776    1774.0595      8883808   0.54468798    3.5193658 
   10900    353.81244    9790.6586    10144.471    701.33827    1777.6529    8984482.4   0.53858455    3.9611888 
   11000    347.70402     9797.571    10145.275    701.83342    1749.6722    9084991.1    0.5326261    4.4121108 
   11100    335.14551    9797.8689    10133.014    701.85476    1709.7908    9185807.2   0.52678042    4.8349819 
   11200    320.83463    9790.4974    10111.332    701.32672    1666.5165    9287034.4    0.5210386    5.2596009 
   11300    323.06901    9781.0588    10104.128    700.65059    1649.9616    9388577.6   0.51540325    5.6864769 
   11400    339.77794    9781.2826    10121.061    700.66663    1659.3381    9490524.6    0.5098668     6.096442 
   11500    300.11172    9777.8408    10077.952    700.42008    1575.4785      9593125   0.50441367    6.5089209 
   11600    310.84752    9774.4399    10085.287    700.17646    1577.0472    9695877.2   0.49906814     6.924011 
   11700    331.86718     9744.614    10076.481    698.03993    1588.6507    9799425.2   0.49379462    7.3391409 
   11800    322.86855    9744.3655    10067.234    698.02213     1560.003    9903699.2   0.48859555    7.7565029 
   11900    302.12778    9775.7862    10077.914    700.27291    1514.2319     10008546   0.48347718     8.176034 
   12000    299.98924    9809.1198    10109.109     702.6607    1499.0793     10114472   0.47841386    8.6031749 
   12100    323.30069    9777.7225    10101.023    700.41161    1514.3512     10221043    0.4734256    9.0030029 
   12200     310.9077    9767.6052    10078.513    699.68687    1479.3492     10327856   0.46852932    9.4078009 
   12300    285.43216    9778.2822    10063.714     700.4517    1426.8518     10435754   0.46368508    9.8129518 
   12400    264.30658    9778.9436     10043.25    700.49908     1381.801     10544465   0.45890459    10.221721 
   12500    267.72866    9748.2027    10015.931    698.29701    1369.1866     10654061   0.45418395    10.630435 
   12600    290.82149    9750.7647    10041.586    698.48053    1387.7526     10763970   0.44954636    11.043192 
   12700    269.91728    9804.5361    10074.453    702.33235    1350.0323     10875168   0.44494977    11.441599 
   12800    278.70041    9816.3565    10095.057    703.17909    1348.8734     10987781   0.44038949    11.842079 
   12900    270.84244    9773.7651    10044.608    700.12813    1320.3086     11101013   0.43589746    12.241815 
   13000    237.37169    9773.6755    10011.047    700.12171    1261.0272     11214698   0.43147872     12.64991 
   13100     275.3789    9774.9448    10050.324    700.21263    1300.4417     11329436   0.42710895    13.029746 
   13200    282.23101    9760.0066    10042.238    699.14256      1294.65     11444938   0.42279859    13.412095 
   13300    253.02002    9745.7616    9998.7816    698.12214    1242.5588     11561581   0.41853302    13.796913 
   13400    234.21181    9761.2066    9995.4184    699.22851     1205.234     11678758   0.41433373    14.185557 
   13500    268.29233    9810.8772     10079.17    702.78659    1242.9659     11797866   0.41015072    14.574591 
   13600    265.12462    9784.8484    10049.973    700.92206    1222.2881     11917900   0.40601979    14.965185 
   13700    243.91055    9757.5626    10001.473    698.96748    1182.2932     12038430    0.4019547     15.35873 
   13800    218.01748    9769.2294    9987.2469    699.80322    1137.9418     12159511   0.39795213    15.754674 
   13900    225.22957    9780.6551    10005.885    700.62168    1136.4089     12281945    0.3939851    16.156339 
   14000    242.93103    9769.2452    10012.176    699.80435    1145.0633     12405332   0.39006641    16.564858 
   14100    217.93733    9741.3513    9959.2886    697.80621    1101.8784     12529849   0.38619007    16.942794 
   14200    246.42654    9758.4387    10004.865    699.03024    1126.7864     12655553   0.38235415    17.324034 
   14300    254.46534    9803.2691    10057.734     702.2416    1129.6146     12782397   0.37855995    17.707394 
   14400    220.51478    9784.4692    10004.984    700.89489    1076.2776     12910529   0.37480288     18.09313 
   14500     196.0254    9741.5376     9937.563    697.81956    1032.5166     13039278   0.37110209    18.480309 
   14600    206.33137    9758.7955    9965.1269     699.0558    1035.9475     13169115   0.36744331    18.872334 
   14700     238.4321    9788.2006    10026.633    701.16219    1065.5448     13299950   0.36382868     19.26454 
   14800    209.76028    9791.8275    10001.588      701.422    1021.5837     13432482   0.36023897    19.663007 
   14900    190.98563    9736.8283    9927.8139    697.48221    986.19795     13565905   0.35669596    20.061325 
   15000     202.8394    9755.0438    9957.8831    698.78705    991.81593     13700197   0.35319954    20.468565 
   15100     188.3776     9794.397    9982.7746    701.60606    969.05598     13835993     0.349733    20.846038 
   15200    197.56689    9786.1243    9983.6912    701.01346    968.25124     13972622   0.34631319     21.22609 
   15300     209.7082    9738.0456    9947.7538    697.56941    968.78599     14110430   0.34293097    22.250602 
   15400    186.97949    9732.6033    9919.5828    697.17957    934.36343     14249338   0.33958794    22.635884 
   15500    182.56495    9790.1498    9972.7148    701.30182    924.36284     14389660   0.33627642     23.02379 
   15600    195.26387    9792.0321     9987.296    701.43665    929.00221     14531871   0.33298558    23.414545 
   15700    210.21093    9765.4508    9975.6617    699.53254    933.79372     14674970   0.32973856    23.813925 
   15800    194.48149    9754.8074    9949.2889    698.77012    907.52494     14818799   0.32653815    24.216629 
   15900    188.61612    9785.8245    9974.4406    700.99198    895.52362     14964130   0.32336684    24.622435 
   16000    197.33612    9804.3566    10001.693     702.3195    895.75269     15111127   0.32022122    25.036711 
   16100    171.32857    9766.8196    9938.1482     699.6306    858.30378     15259173   0.31711439    25.416911 
   16200     179.5239    9732.9869    9912.5108    697.20704    856.24021     15408514   0.31404088    25.800364 
   16300    180.50182    9773.4353    9953.9372     700.1045    851.60375     15559043   0.31100264    26.189914 
   16400    172.58789    9797.8699    9970.4578    701.85484    837.40656     15711206   0.30799057    26.807502 
   16500    159.08007    9773.6801    9932.7601    700.12203    813.85749     15864174   0.30502082    27.198546 
   16600    180.86334    9756.0432    9936.9065    698.85864    826.87639     16018511   0.30208198    27.594733 
   16700    173.54192    9771.6384    9945.1803    699.97578    812.86486     16174166   0.29917484    27.992834 
   16800    183.20527    9807.3285    9990.5338    702.53239    817.23109     16331370     0.296295    28.393555 
   16900    149.25925    9781.4577     9930.717    700.67917     774.2764     16490209   0.29344099    28.797226 
   17000    157.90991    9735.4366    9893.3465    697.38252    772.41228     16649980   0.29062517     29.21063 
   17100    163.36754    9746.2789    9909.6464    698.15919    770.96303     16810868   0.28784376    29.589228 
   17200    157.65227    9785.4728    9943.1251    700.96679     760.0721     16973490   0.28508593    29.973319 
   17300    144.14526    9774.2754    9918.4207    700.16468    740.22348     17137503   0.28235756    30.355565 
   17400     132.0458    9761.5057    9893.5515    699.24994    721.88653     17303133   0.27965475    30.741507 
   17500    141.03009    9776.7143    9917.7444    700.33939    723.56773     17470214   0.27698021    31.130188 
   17600    146.10264    9805.1911    9951.2937    702.37928    723.17712     17639487   0.27432223    31.855098 
   17700    179.41274    9768.4326    9947.8453    699.74614    742.87446     17809612   0.27170179    32.254678 
   17800    153.23294    9725.7346    9878.9676    696.68754    710.41258     17980758   0.26911565    32.658937 
   17900    160.01403    9755.5197    9915.5338    698.82115    711.16769     18153584   0.26655361    33.068393 
   18000    135.23371     9780.112    9915.3457    700.58278    684.61992     18328260   0.26401325    33.486193 
   18100    144.70133    9769.0465    9913.7478    699.79011    685.77181     18504648   0.26149665    33.869755 
   18200    144.40556    9764.2932    9908.6988    699.44962    678.56817     18682157   0.25901202    34.252339 
   18300    148.13657    9788.9099    9937.0465      701.213    676.29928     18861339   0.25655143    34.641008 
   18400    146.56085    9793.6073    9940.1682    701.54949    669.45144     19042281   0.25411364    35.030064 
   18500    130.32992     9760.437     9890.767    699.17339    648.35932     19224995   0.25169855    35.421997 
   18600    138.89386    9733.1351     9872.029    697.21766    647.16628     19408269   0.24932174    35.817553 
   18700    131.00126    9771.9392    9902.9404    699.99733    637.06959     19593732    0.2469618    36.216993 
   18800    127.47311     9774.922    9902.3951      700.211    628.10506     19780435   0.24463079    36.624886 
   18900    145.97951    9762.2937    9908.2732    699.30639    636.20171     19968748   0.24232383     37.03249 
   19000    111.11332    9773.9954    9885.1087    700.14462    604.19825     20158741   0.24003996    37.451226 
   19100    126.51456    9791.6043    9918.1189    701.40601     610.4674     20350416   0.23777909    37.836506 
   19200    136.82899    9776.6848    9913.5138    700.33727    612.28114     20544657   0.23553099    38.221834 
   19300     131.7338     9747.796    9879.5298    698.26787    600.39287     20739696   0.23331602    38.609736 
   19400    128.57449    9763.8513    9892.4258    699.41797    594.06364     20936627   0.23112144    39.001218 
   19500    122.52558    9780.6021    9903.1277    700.61788      584.908     21135606   0.22894557    39.397242 
   19600    132.73639    9769.4747    9902.2111    699.82079    586.09066     21336425   0.22679073     39.79685 
   19700    128.88074    9769.0474    9897.9281    699.79018    578.08278     21538775   0.22466011    40.202823 
   19800    127.43716    9793.5433    9920.9804     701.5449    572.54948     21743363   0.22254623      40.6128 
   19900    117.10055    9782.7041    9899.8047    700.76846    559.05585     21949672   0.22045448    41.020569 
   20000    134.92663    9755.0915    9890.0181    698.79047    564.99242     22157057   0.21839107    41.444095 
Loop time of 41.4441 on 2 procs for 10000 steps with 108000 atoms

Performance: 20.847 ns/day, 1.151 hours/ns, 241.289 timesteps/s
97.8% CPU use with 2 MPI tasks x 1 OpenMP threads

MPI task timing breakdown:
Section |  min time  |  avg time  |  max time  |%varavg| %total
---------------------------------------------------------------
Pair    | 4.6524     | 4.6776     | 4.7029     |   1.2 | 11.29
Neigh   | 11.089     | 11.096     | 11.103     |   0.2 | 26.77
Comm    | 1.544      | 1.6436     | 1.7432     |   7.8 |  3.97
Output  | 9.8525     | 9.8528     | 9.8532     |   0.0 | 23.77
Modify  | 13.148     | 13.219     | 13.291     |   2.0 | 31.90
Other   |            | 0.9548     |            |       |  2.30

Nlocal:    54000 ave 54102 max 53898 min
Histogram: 1 0 0 0 0 0 0 0 0 1
Nghost:    4675.5 ave 4766 max 4585 min
Histogram: 1 0 0 0 0 0 0 0 0 1
Neighs:    6756 ave 6785 max 6727 min
Histogram: 1 0 0 0 0 0 0 0 0 1

Total # of neighbors = 13512
Ave neighs/atom = 0.125111
Neighbor list builds = 1000
Dangerous builds = 1000

unfix 				inc_temp



# ------------------------- BINDING FORCE FIELDS / POTENTIAL -------------------------

pair_style		lj/cut 10
pair_coeff		* * 3.920 2.62 10

# pair_style		eam/alloy
# pair_coeff		* * Al_Zhou04.eam.alloy Al

print "******************** Force field altered for binding ********************"
******************** Force field altered for binding ********************



# ------------------------- STEP 3: NVE INTERACTION  -------------------------

print "******************** NVE interaction ********************"
******************** NVE interaction ********************

neighbor			0.5 bin
neigh_modify		every 10 delay 0 check yes

fix					nve all nve
fix					temp_rescale all temp/rescale 100 700 700 0.1 0.9

timestep 			0.001

run 				10000
Per MPI rank memory allocation (min/avg/max) = 36.94 | 36.94 | 36.94 Mbytes
Step PotEng KinEng TotEng Temp Press Volume Density CPU 
   20000   -197764.46    9755.0915   -188009.37    698.79047   -3266.4391     22157057   0.21839107            0 
   20100   -370314.43    26969.514   -343344.92    1931.9182   -9844.7532     22157057   0.21839107     1.212451 
   20200   -543993.61    28814.149   -515179.46    2064.0558   -10930.859     22157057   0.21839107     2.436609 
   20300   -726401.26    29842.494   -696558.77    2137.7196    -11807.51     22157057   0.21839107      3.66293 
   20400   -907618.69    29797.175   -877821.51    2134.4733   -10907.766     22157057   0.21839107     4.901696 
   20500     -1075854    28476.504   -1047377.5    2039.8691   -10424.442     22157057   0.21839107    6.1673081 
   20600   -1225283.8    26456.052   -1198827.8    1895.1372   -8636.5657     22157057   0.21839107    7.4758739 
   20700   -1352385.7    24026.878   -1328358.8    1721.1272   -7171.1126     22157057   0.21839107    8.8393409 
   20800   -1457832.3    21626.812   -1436205.5    1549.2023    -5865.735     22157057   0.21839107    10.250858 
   20900     -1544221    19492.393   -1524728.6    1396.3066    -4053.437     22157057   0.21839107    11.715411 
   21000   -1612530.5    17487.137   -1595043.3    1252.6632   -3634.2372     22157057   0.21839107    13.228232 
   21100   -1666418.5    15856.619   -1650561.9    1135.8637   -3259.5645     22157057   0.21839107    14.603277 
   21200   -1710032.6    14676.663   -1695355.9    1051.3394   -3048.0753     22157057   0.21839107    16.149054 
   21300   -1745480.1    13748.421   -1731731.7    984.84627   -2414.4468     22157057   0.21839107      17.9469 
   21400   -1775109.1    13081.313   -1762027.8    937.05907   -2444.4208     22157057   0.21839107    19.758307 
   21500   -1800367.1    12581.644   -1787785.5    901.26605   -2071.7152     22157057   0.21839107    21.548849 
   21600   -1822145.7    12186.801   -1809958.9    872.98213   -1343.6657     22157057   0.21839107    23.340735 
   21700   -1841325.7    11892.102   -1829433.6    851.87184   -1563.4855     22157057   0.21839107    25.008876 
   21800   -1858729.3    11687.561   -1847041.8    837.21984   -1366.4822     22157057   0.21839107    26.673396 
   21900   -1874378.3    11494.303     -1862884    823.37614   -1162.4743     22157057   0.21839107    28.367351 
   22000   -1888526.2    11327.185     -1877199    811.40492   -1358.1008     22157057   0.21839107    30.088893 
   22100     -1902019     11245.07     -1890774    805.52268    -1014.566     22157057   0.21839107    31.794798 
   22200   -1914237.8    11111.611   -1903126.2    795.96261   -1143.2777     22157057   0.21839107    33.528036 
   22300   -1925702.5    11024.979   -1914677.5    789.75686   -1116.0953     22157057   0.21839107    35.341781 
   22400   -1936697.8    10969.162   -1925728.6    785.75848   -1123.1485     22157057   0.21839107    37.122411 
   22500   -1947063.2    10901.258   -1936161.9    780.89429   -928.77079     22157057   0.21839107    38.926618 
   22600   -1956536.2    10807.111   -1945729.1    774.15023   -838.13125     22157057   0.21839107     40.75381 
   22700   -1965626.5    10759.627   -1954866.9    770.74878   -923.75537     22157057   0.21839107    42.603374 
   22800   -1974134.3    10698.394   -1963435.9    766.36245    -691.9456     22157057   0.21839107    44.473896 
   22900   -1982499.8    10678.273   -1971821.5    764.92113   -828.19926     22157057   0.21839107    46.365452 
   23000   -1990739.8    10663.497   -1980076.3    763.86263   -868.59081     22157057   0.21839107    48.279602 
   23100   -1998570.4    10622.603   -1987947.8    760.93327   -760.96342     22157057   0.21839107    50.365657 
   23200   -2005937.2     10574.49   -1995362.7    757.48676   -839.73774     22157057   0.21839107    52.294892 
   23300   -2012722.9    10511.461   -2002211.4    752.97181   -767.71986     22157057   0.21839107      54.2422 
   23400   -2019190.4    10474.613   -2008715.8    750.33226   -640.13922     22157057   0.21839107    56.208852 
   23500   -2025554.9    10461.163   -2015093.8    749.36877   -682.83531     22157057   0.21839107    58.193169 
   23600   -2031580.1    10426.097     -2021154    746.85687   -589.40518     22157057   0.21839107    60.198628 
   23700   -2037515.7    10414.292   -2027101.4    746.01127   -703.25047     22157057   0.21839107    62.220814 
   23800   -2043054.2    10372.848   -2032681.3     743.0425   -509.23681     22157057   0.21839107    64.254497 
   23900   -2048721.6    10381.377   -2038340.2    743.65342   -443.36629     22157057   0.21839107    66.305399 
   24000   -2054140.4     10358.59   -2043781.8    742.02111   -476.39636     22157057   0.21839107     68.37484 
   24100     -2059350    10336.127   -2049013.8    740.41203   -443.58756     22157057   0.21839107    70.437592 
   24200   -2064126.2    10291.918   -2053834.3    737.24521   -470.80869     22157057   0.21839107    72.515779 
   24300   -2068674.9    10265.274   -2058409.6    735.33656   -348.31779     22157057   0.21839107    74.569604 
   24400   -2073313.3    10271.618   -2063041.7    735.79099   -467.17426     22157057   0.21839107    76.659892 
   24500   -2077868.7    10263.924   -2067604.8    735.23987   -487.47964     22157057   0.21839107    79.042835 
   24600   -2081946.2    10216.184     -2071730    731.82011   -536.32931     22157057   0.21839107    81.539221 
   24700   -2086161.8    10225.655   -2075936.2    732.49854   -272.30498     22157057   0.21839107    83.896605 
   24800   -2089969.4    10186.737   -2079782.7    729.71071    -418.9722     22157057   0.21839107    86.091743 
   24900   -2093576.7    10162.809   -2083413.9    727.99665   -329.07125     22157057   0.21839107    88.261095 
   25000   -2097286.9    10170.458   -2087116.4    728.54458    -374.8353     22157057   0.21839107    90.445404 
   25100   -2101100.9    10180.665   -2090920.2    729.27574   -152.95394     22157057   0.21839107    92.619163 
   25200   -2104636.6    10155.185   -2094481.4    727.45055   -313.93119     22157057   0.21839107    94.808866 
   25300   -2108363.5    10171.408   -2098192.1    728.61267   -179.22722     22157057   0.21839107    97.010192 
   25400   -2111814.4    10146.687   -2101667.7    726.84177   -446.81211     22157057   0.21839107    99.223598 
   25500   -2115029.7    10121.516   -2104908.2    725.03868    -199.5415     22157057   0.21839107    101.44789 
   25600   -2118049.2    10099.869   -2107949.3    723.48803   -349.28771     22157057   0.21839107    103.67713 
   25700   -2120947.2    10085.712   -2110861.5    722.47395   -176.79622     22157057   0.21839107    105.90975 
   25800   -2123534.7    10054.273   -2113480.4    720.22187   -347.75214     22157057   0.21839107    108.15101 
   25900   -2126095.2    10048.444   -2116046.8    719.80432   -367.43991     22157057   0.21839107    110.40016 
   26000   -2128698.3     10051.81   -2118646.5     720.0454   -157.31447     22157057   0.21839107    112.65819 
   26100   -2131172.1    10040.517   -2121131.6    719.23644   -326.56888     22157057   0.21839107    114.90896 
   26200   -2133671.7    10040.875   -2123630.8    719.26209   -330.66989     22157057   0.21839107    117.16887 
   26300   -2135974.9    10020.975   -2125953.9    717.83662   -225.08579     22157057   0.21839107    119.43792 
   26400   -2138414.4    10033.166   -2128381.2    718.70991    -290.3096     22157057   0.21839107    121.71507 
   26500   -2140901.2     10038.42   -2130862.8    719.08627    -318.1532     22157057   0.21839107    124.00567 
   26600   -2143163.4    10017.382     -2133146     717.5792   -205.72584     22157057   0.21839107    126.30127 
   26700   -2145387.1    10011.916   -2135375.2    717.18771   -134.85788     22157057   0.21839107    128.60364 
   26800   -2147386.2    9989.1187   -2137397.1    715.55464   -94.232688     22157057   0.21839107    130.91346 
   26900   -2149453.2    9994.4842   -2139458.7    715.93899   -211.45353     22157057   0.21839107    133.23128 
   27000   -2151602.9    10002.436   -2141600.5    716.50861   -174.38539     22157057   0.21839107    135.48083 
   27100   -2153289.9    9957.9522     -2143332    713.32207   -226.86056     22157057   0.21839107    138.01884 
   27200   -2155114.4    9967.0167   -2145147.4    713.97139   -134.30437     22157057   0.21839107    140.67049 
   27300   -2157280.8    10001.226   -2147279.6     716.4219      -291.81     22157057   0.21839107    143.24408 
   27400   -2159253.6    9984.9752   -2149268.6    715.25782   -234.58707     22157057   0.21839107    145.73153 
   27500   -2161311.8    9992.3463   -2151319.4    715.78584   -212.42126     22157057   0.21839107    148.22473 
   27600   -2163278.8    9983.4254   -2153295.4    715.14681   -105.51659     22157057   0.21839107    150.72533 
   27700   -2165191.1    9978.5835   -2155212.5    714.79996   -277.95006     22157057   0.21839107    153.23276 
   27800   -2167190.1      9985.32   -2157204.8    715.28252   -169.38111     22157057   0.21839107    155.74756 
   27900   -2169069.6    9974.6942   -2159094.9    714.52136   -62.287662     22157057   0.21839107    158.17159 
   28000   -2170937.1    9973.4337   -2160963.7    714.43107   -78.365782     22157057   0.21839107    160.55878 
   28100   -2172664.7    9959.2346   -2162705.5    713.41394   -115.31678     22157057   0.21839107    162.94073 
   28200   -2174286.9    9947.6212   -2164339.3    712.58203   -208.37482     22157057   0.21839107    165.32998 
   28300   -2175774.4    9933.1515   -2165841.3    711.54552   -215.16825     22157057   0.21839107    167.72564 
   28400   -2177373.4    9942.3557     -2167431    712.20484   -91.828567     22157057   0.21839107    170.12761 
   28500   -2178896.6    9936.5104   -2168960.1    711.78612   -245.56092     22157057   0.21839107    172.53564 
   28600   -2180369.3    9930.7115   -2170438.6    711.37073   -126.21001     22157057   0.21839107    174.94841 
   28700   -2181775.4    9924.1103   -2171851.3    710.89786   -243.15035     22157057   0.21839107    177.36636 
   28800   -2183357.4    9940.0782   -2173417.3     712.0417   -167.03661     22157057   0.21839107    179.78805 
   28900   -2184831.9    9930.7434   -2174901.1    711.37301   -117.09547     22157057   0.21839107    182.21396 
   29000   -2186242.1    9923.7575   -2176318.4    710.87259   -67.805198     22157057   0.21839107    184.65023 
   29100     -2187697    9927.7555   -2177769.2    711.15898   -122.31983     22157057   0.21839107    187.07751 
   29200     -2189020     9915.332   -2179104.6    710.26904   -119.33062     22157057   0.21839107     189.5097 
   29300   -2190426.7    9922.5816   -2180504.1    710.78835   -22.047827     22157057   0.21839107     191.9463 
   29400   -2191645.5    9904.7097   -2181740.8    709.50813   -45.710888     22157057   0.21839107    194.36722 
   29500   -2192771.9    9894.3028   -2182877.6    708.76265   -192.82338     22157057   0.21839107    196.83316 
   29600   -2193936.3    9897.2186   -2184039.1    708.97152   -159.90539     22157057   0.21839107     199.6975 
   29700   -2195061.9     9892.732   -2185169.1    708.65013    159.68042     22157057   0.21839107    202.41681 
   29800   -2196068.1    9881.1294     -2186187      707.819   -134.73238     22157057   0.21839107     205.0295 
   29900   -2197114.5    9884.4812     -2187230     708.0591   -153.58426     22157057   0.21839107    207.64312 
   30000   -2198241.5    9891.8911   -2188349.6    708.58989   -193.56816     22157057   0.21839107    210.26368 
Loop time of 210.264 on 2 procs for 10000 steps with 108000 atoms

Performance: 4.109 ns/day, 5.841 hours/ns, 47.559 timesteps/s
99.3% CPU use with 2 MPI tasks x 1 OpenMP threads

MPI task timing breakdown:
Section |  min time  |  avg time  |  max time  |%varavg| %total
---------------------------------------------------------------
Pair    | 158.21     | 160.19     | 162.17     |  15.6 | 76.19
Neigh   | 30.443     | 30.804     | 31.164     |   6.5 | 14.65
Comm    | 2.813      | 5.1102     | 7.4075     | 101.6 |  2.43
Output  | 8.9775     | 8.9779     | 8.9783     |   0.0 |  4.27
Modify  | 4.0103     | 4.051      | 4.0917     |   2.0 |  1.93
Other   |            | 1.128      |            |       |  0.54

Nlocal:    54000 ave 54032 max 53968 min
Histogram: 1 0 0 0 0 0 0 0 0 1
Nghost:    18074.5 ave 18289 max 17860 min
Histogram: 1 0 0 0 0 0 0 0 0 1
Neighs:    2.19153e+06 ave 2.22654e+06 max 2.15652e+06 min
Histogram: 1 0 0 0 0 0 0 0 0 1

Total # of neighbors = 4383060
Ave neighs/atom = 40.5839
Neighbor list builds = 1000
Dangerous builds = 1000

unfix 				temp_rescale
unfix 				nve



# ------------------------- STEP 4a: COOLING 700 - 600  -------------------------

print "******************** Decreasing temperature from 700 K to 600 K ********************"
******************** Decreasing temperature from 700 K to 600 K ********************

neighbor			0.5 bin
neigh_modify		every 10 delay 0 check yes

fix					2 all npt temp 600.0 600.0 0.1 iso 1 1 1 drag 0.2
fix					temp_rescale all temp/rescale 100 600 600 0.1 0.9

timestep 			0.001

run 				15000
Per MPI rank memory allocation (min/avg/max) = 42.66 | 42.85 | 43.04 Mbytes
Step PotEng KinEng TotEng Temp Press Volume Density CPU 
   30000   -2198241.5    9891.8911   -2188349.6    708.58989   -193.56816     22157057   0.21839107            0 
   30100   -2199569.4    8600.3328     -2190969    616.07117    -10.56078     22140448    0.2185549    2.7314529 
   30200   -2201339.8    8514.5668   -2192825.2    609.92746   -103.86285     22121235   0.21874472    5.4675131 
   30300   -2202564.4    8464.0982   -2194100.3    606.31222   -151.74542     22093908   0.21901527    8.2078671 
   30400   -2203488.8    8437.2285   -2195051.6    604.38745   -105.81136     22048497   0.21946637    10.950284 
   30500   -2204390.3    8437.3288     -2195953    604.39463   -84.175122     21996884   0.21998131     13.56077 
   30600   -2205292.8    8438.4921   -2196854.3    604.47797   -39.129466     21939405   0.22055764    16.165376 
   30700   -2206215.7    8440.5503   -2197775.2     604.6254   -93.229745     21881035   0.22114601    18.770872 
   30800   -2207108.4    8439.0262   -2198669.3    604.51622   -3.5306897     21831602   0.22164674    21.380273 
   30900   -2208075.8    8446.6277   -2199629.2    605.06075   -1.6482209     21783734    0.2221338    23.992164 
   31000   -2208983.3    8441.3784     -2200542    604.68472   -3.5714176     21742538   0.22255467    26.610312 
   31100   -2209908.9    8441.2485   -2201467.7    604.67542   -27.750998     21692531   0.22306772    29.225577 
   31200   -2211088.7    8463.4428   -2202625.3    606.26527   -144.79968     21646062   0.22354659    31.837443 
   31300   -2212089.6    8448.2266   -2203641.4    605.17528   -9.6566467     21601744   0.22400522    34.459251 
   31400   -2213137.5    8452.2697   -2204685.2     605.4649   -137.07883     21550084    0.2245422    37.082155 
   31500   -2214378.1    8467.9767   -2205910.2    606.59005   -33.060178     21496950   0.22509721    39.703839 
   31600   -2215737.6    8478.5206   -2207259.1    607.34535    54.769401     21450375   0.22558596    42.329115 
   31700   -2216943.4    8465.4401     -2208478    606.40834   -150.26975     21417721    0.2259299    44.881062 
   31800   -2218004.5    8452.2688   -2209552.2    605.46484    -31.21836     21389708   0.22622578     47.82177 
   31900   -2219099.4    8454.9586   -2210644.5    605.65752   -4.7691959     21350036   0.22664615    50.897261 
   32000   -2220142.5    8450.2489   -2211692.3    605.32015   -11.555557     21309897   0.22707305    53.765217 
   32100   -2221330.7    8464.3193   -2212866.4    606.32806   -160.83735     21270202   0.22749682    56.500156 
   32200     -2222458     8458.252   -2213999.8    605.89344   -95.362505     21239925   0.22782111    59.134763 
   32300   -2223568.9    8456.1798   -2215112.8      605.745   -8.3028282     21219024   0.22804552     61.76831 
   32400   -2224451.7    8437.1897   -2216014.5    604.38467    8.8130728     21203044    0.2282174    64.400512 
   32500   -2225206.3    8427.2395     -2216779     603.6719    3.1542719     21196698   0.22828572     67.03366 
   32600   -2225904.2    8421.7772   -2217482.4    603.28062   -40.814183     21176127   0.22850748    69.668882 
   32700   -2226639.5    8426.8983   -2218212.6    603.64746   -58.521773     21143734   0.22885756     72.30756 
   32800   -2227504.7    8438.7993   -2219065.9    604.49997    -12.55543     21096533    0.2293696    74.949248 
   32900   -2228341.9    8435.9926   -2219905.9    604.29892   -46.342679     21052381   0.22985064    77.593613 
   33000   -2229162.7    8433.6156   -2220729.1    604.12865    28.745515     21016893   0.23023876    80.258549 
   33100   -2230024.7    8437.1158   -2221587.6    604.37938   -69.389659     20990236   0.23053116    82.900158 
   33200   -2230872.7    8436.9144   -2222435.8    604.36495   -73.023381     20957733   0.23088869    85.545683 
   33300     -2231650    8431.2797   -2223218.7    603.96132    122.53278     20925731   0.23124178    88.195427 
   33400   -2232320.6    8422.1645   -2223898.5    603.30837   -67.279455     20889588   0.23164187    90.848933 
   33500   -2232948.7     8417.989   -2224530.7    603.00926   -10.154295     20839075   0.23220337    93.510234 
   33600   -2233877.9    8443.8783     -2225434     604.8638   -17.764544     20778808   0.23287686    96.171732 
   33700   -2234833.8    8446.8316     -2226387    605.07535   -57.492358     20724507   0.23348703    98.838776 
   33800   -2235729.4    8442.0112   -2227287.4    604.73005   -15.321373     20693328   0.23383882    101.50853 
   33900   -2236515.3    8430.4004   -2228084.9    603.89833   -48.046541     20666564   0.23414165    104.15192 
   34000   -2237313.2    8431.4031   -2228881.8    603.97016     -49.1978     20646407   0.23437024    106.96506 
   34100   -2238141.2    8434.6346   -2229706.6    604.20164    5.0967104     20618217   0.23469068    110.19461 
   34200   -2238966.7    8433.6146   -2230533.1    604.12857   -138.94493     20588979   0.23502397    113.23949 
   34300   -2239732.3     8429.323     -2231303    603.82115   -21.279903     20563166   0.23531899    116.08841 
   34400   -2240481.4     8427.832   -2232053.6    603.71435    124.74813     20528539   0.23571592     118.8349 
   34500   -2241168.6    8422.8837   -2232745.7    603.35988   -48.217198     20496691   0.23608218    121.52377 
   34600   -2241997.1    8434.3763   -2233562.7    604.18314   -23.036782     20457477   0.23653471     124.2157 
   34700   -2242670.1    8422.2886   -2234247.8    603.31725   -31.082777     20429210   0.23686199    126.91143 
   34800   -2243493.3    8434.3582   -2235058.9    604.18184    60.943259     20389994   0.23731755     129.6097 
   34900   -2244334.2    8435.7055   -2235898.5    604.27835    -48.35688     20349360   0.23779143    132.30967 
   35000   -2245219.5    8440.0056   -2236779.5    604.58638   -95.600926     20313078   0.23821616    135.04611 
   35100   -2246029.2    8432.2975   -2237596.9    604.03422   -38.581285     20283427   0.23856439    137.77221 
   35200   -2246855.9    8433.4731   -2238422.5    604.11844   -77.106811     20255470   0.23889367    140.50112 
   35300     -2247611    8428.0223     -2239183    603.72798   -77.214664     20229599   0.23919918    143.23246 
   35400   -2248424.2    8434.0648   -2239990.1    604.16083   -247.48373     20207351   0.23946253    145.96545 
   35500   -2249201.8    8431.1023   -2240770.7    603.94861    46.457746     20169713   0.23990939    148.70163 
   35600   -2250008.3    8432.2675     -2241576    604.03208   -4.7131234     20143417   0.24022258    151.44033 
   35700   -2250752.1    8428.1233     -2242324    603.73521  -0.75874583     20133056   0.24034619    154.18395 
   35800   -2251314.6    8413.8564   -2242900.7    602.71323   -151.22939     20120051   0.24050155    156.88703 
   35900   -2251772.9    8403.2282   -2243369.6    601.95189   -22.575615     20089168   0.24087127    159.56165 
   36000   -2252296.3    8410.3132     -2243886    602.45941    89.814054     20056776   0.24126028    162.23997 
   36100     -2252810    8409.3979   -2244400.6    602.39385    70.979162     20011892    0.2418014    164.86859 
   36200   -2253375.9    8413.6719   -2244962.2    602.70001   -69.947458     19962561   0.24239892    167.89993 
   36300   -2254058.3    8424.1193   -2245634.2    603.44839   -90.019223     19917444   0.24294801    171.18637 
   36400   -2254800.6    8428.9557   -2246371.7    603.79484   -45.104968     19874086   0.24347803    174.24274 
   36500   -2255549.1    8429.2513   -2247119.9    603.81602    4.1927531     19843724   0.24385057    177.16844 
   36600   -2256254.7    8424.7946   -2247829.9    603.49677    19.691882     19816293   0.24418812    180.09485 
   36700   -2256945.4    8423.6393   -2248521.8    603.41401   -95.827334     19792124   0.24448631    183.02368 
   36800   -2257652.3    8423.7432   -2249228.5    603.42145    92.232476     19760612   0.24487619    185.95541 
   36900   -2258278.4    8417.5633   -2249860.8    602.97877   -92.498226     19744043   0.24508169    188.79757 
   37000   -2259111.1     8437.299   -2250673.8     604.3925   -97.969466     19712574   0.24547294    191.58127 
   37100   -2259728.6    8418.1372   -2251310.4    603.01988    112.26103     19687065   0.24579101    194.35988 
   37200   -2260377.1    8421.1328     -2251956    603.23446   -119.25454     19663330   0.24608769    197.13069 
   37300   -2260950.7    8413.6738     -2252537    602.70014   -126.18447     19627255      0.24654    199.90689 
   37400   -2261655.8     8424.318   -2253231.5    603.46263   -147.84948     19590819   0.24699852    202.68282 
   37500   -2262263.9    8416.1063   -2253847.8    602.87439   -95.974637     19551449   0.24749589     205.4622 
   37600   -2263019.1    8428.7996   -2254590.3    603.78366   -33.924763     19502581   0.24811606    208.24471 
   37700   -2263728.6     8426.682   -2255301.9    603.63197    27.229105     19468255   0.24855352    211.03016 
   37800   -2264468.2    8428.6195   -2256039.6    603.77076   -12.866921     19434963    0.2489793    213.82279 
   37900   -2265138.7    8421.4547   -2256717.2    603.25752    50.667823     19402254   0.24939904    216.61622 
   38000   -2265849.7    8425.6552     -2257424    603.55842   -55.117192     19371735   0.24979195    219.41596 
   38100   -2266634.8     8432.933   -2258201.8    604.07975   -78.523251     19330553    0.2503241    222.21104 
   38200     -2267453    8435.1057   -2259017.9    604.23539    -28.92885     19281366   0.25096269    224.93452 
   38300   -2268179.1    8426.0313   -2259753.1    603.58536   -74.219581     19245418   0.25143145    228.05565 
   38400   -2268976.1    8431.5764   -2260544.5    603.98257   -81.094258     19209979    0.2518953    231.36425 
   38500   -2269662.9    8421.6828   -2261241.2    603.27386    43.946008     19178718   0.25230588     234.4218 
   38600   -2270517.1    8436.4747   -2262080.6    604.33345    -9.794776     19144789   0.25275303     237.3952 
   38700   -2271301.6    8430.9273   -2262870.7    603.93608   -62.230331     19109628   0.25321808    240.36895 
   38800   -2272114.7    8433.8965   -2263680.8    604.14877     -159.392     19074468   0.25368484    243.34604 
   38900   -2272887.8    8430.4136   -2264457.3    603.89928   -67.171095     19034858   0.25421275     246.3256 
   39000   -2273627.5    8427.5377     -2265200    603.69327   -131.11599     18997797   0.25470866    249.29941 
   39100   -2274416.8    8432.9523   -2265983.8    604.08113   -67.807288     18955921   0.25527134    252.09767 
   39200   -2275277.1    8438.5569   -2266838.5    604.48261   -2.9297178     18913572   0.25584291    254.90021 
   39300   -2276144.7    8439.2525   -2267705.4    604.53243    13.586928     18882647   0.25626193    257.70713 
   39400   -2276969.7    8433.8984   -2268535.8     604.1489   -6.5620955     18848743   0.25672287    260.52087 
   39500   -2277888.2    8442.3902   -2269445.8     604.7572   -98.631456     18809882   0.25725326     263.3381 
   39600   -2278729.8    8436.0807   -2270293.7    604.30523   -16.105381     18782515   0.25762808    266.15979 
   39700   -2279518.7    8431.1573   -2271087.6    603.95255   -50.846628     18762251   0.25790633    268.98659 
   39800   -2280521.4    8450.1601   -2272071.2    605.31378   -61.832474     18736366   0.25826264    271.81856 
   39900     -2281455    8443.0752   -2273011.9    604.80627   -51.240132     18702145   0.25873521    274.65896 
   40000   -2282350.5    8439.8032   -2273910.7    604.57188   -58.675188     18670955   0.25916743    277.50133 
   40100   -2283300.8    8444.2478   -2274856.5    604.89027    60.891188     18640900   0.25958529    280.33799 
   40200   -2284348.5    8453.0462   -2275895.5    605.52052    25.433437     18604868   0.26008802    283.17937 
   40300     -2285369    8450.6751   -2276918.3    605.35067    96.760077     18563779   0.26066371    285.93981 
   40400   -2286314.1    8443.5095   -2277870.6    604.83738   -91.603232     18544169   0.26093935    289.32698 
   40500   -2287212.6    8439.6227     -2278773    604.55896   -127.92777     18518653   0.26129889    292.58447 
   40600     -2287976    8427.9512   -2279548.1    603.72289   -164.45085     18493070   0.26166036    295.64201 
   40700   -2288742.8    8427.4601   -2280315.3    603.68771   -107.66526     18453530   0.26222102    298.59892 
   40800     -2289603    8436.1538   -2281166.9    604.31046   -119.26463     18411524   0.26281927    301.46569 
   40900   -2290358.7    8426.7591   -2281931.9    603.63749   -72.417684     18375123   0.26333992    304.33582 
   41000     -2291217    8435.8561   -2282781.2    604.28914   -104.95834     18332728    0.2639489    307.21236 
   41100   -2292251.1    8452.8667   -2283798.3    605.50767   -26.680524     18285204   0.26463491    310.08521 
   41200   -2293268.8    8450.4348   -2284818.4    605.33347   -22.428117     18238820   0.26530792    312.96592 
   41300   -2294245.8    8446.4395   -2285799.4    605.04726   -32.429297     18218489     0.265604    315.85169 
   41400   -2295287.5    8452.2866   -2286835.2    605.46611    -111.5276     18190307   0.26601549    318.74357 
   41500   -2296114.3    8432.6293   -2287681.7    604.05799    31.391952     18160382   0.26645384    321.63866 
   41600   -2297197.2    8455.3387   -2288741.8    605.68475    2.9331243     18123847   0.26699096    324.53796 
   41700   -2298185.3    8446.6054   -2289738.7    605.05915   -34.901644     18093441   0.26743964    327.44245 
   41800   -2299111.2    8440.4151   -2290670.8    604.61572   -14.220212     18065105   0.26785914    330.38322 
   41900   -2300111.7    8449.1331   -2291662.5    605.24022   -208.95228     18044648   0.26816281    333.33659 
   42000   -2300933.3     8433.262     -2292500    604.10331   -20.508901     18019946    0.2685304    336.29148 
   42100   -2301797.3    8438.1272   -2293359.2    604.45183   -60.269023     17991177    0.2689598     339.2316 
   42200   -2302613.1    8434.6582   -2294178.4    604.20333   -185.09877     17957146   0.26946951    342.17643 
   42300   -2303323.5    8425.2172   -2294898.3    603.52704    89.422701     17922498   0.26999046    345.04699 
   42400   -2304042.8    8426.3937   -2295616.4    603.61131   -87.018299     17896526   0.27038227    348.41035 
   42500   -2304757.9    8426.8432   -2296331.1    603.64352    -55.88371     17863435   0.27088314    351.90539 
   42600   -2305567.8    8434.5831   -2297133.2    604.19795   -35.448856     17824592   0.27147345    354.91684 
   42700   -2306533.4    8447.9356   -2298085.4    605.15443   -128.05675     17784945   0.27207863    357.88113 
   42800   -2307558.3    8451.7409   -2299106.5    605.42702   -90.847329     17747489   0.27265285    360.87746 
   42900   -2308487.9    8443.1294   -2300044.8    604.81015   -205.70656     17712706   0.27318827    363.84888 
   43000   -2309407.3    8439.8524   -2300967.4    604.57541   -123.18169     17678043   0.27372393    366.82563 
   43100   -2310346.9    8443.2649   -2301903.7    604.81985     53.57126     17647712   0.27419438     369.7982 
   43200   -2311324.5    8446.7895   -2302877.7    605.07234   -109.46146     17605620   0.27484993    372.77623 
   43300   -2312386.7    8452.6929     -2303934    605.49522   -15.368419     17562250   0.27552867    375.76082 
   43400   -2313309.9    8441.0303   -2304868.9    604.65979   -102.19336     17528563    0.2760582    378.75318 
   43500   -2314474.4    8461.5939   -2306012.8    606.13283   -107.88204     17491424   0.27664433    381.75063 
   43600   -2315504.2    8449.7912   -2307054.4    605.28736   -102.17106     17466461   0.27703972    384.75461 
   43700   -2316339.9    8434.7307   -2307905.2    604.20852    20.008003     17451853   0.27727161    387.76345 
   43800   -2317238.2    8439.2052     -2308799    604.52905   -117.96645     17429513     0.277627    390.77622 
   43900   -2318366.4    8460.4263     -2309906    606.04919   -14.709889     17392751    0.2782138    393.79551 
   44000   -2319581.2    8467.7782   -2311113.5    606.57583   -41.990367     17353945   0.27883594    396.81826 
   44100   -2320634.4    8453.1016   -2312181.3    605.52449   -15.345096     17327818   0.27925637    399.83609 
   44200   -2321546.5    8439.2707   -2313107.2    604.53374    42.908164     17304011   0.27964056    402.85951 
   44300   -2322497.8    8443.6524   -2314054.2    604.84761   -88.868198     17277601   0.28006801    405.81231 
   44400   -2323334.5    8434.4531     -2314900    604.18864   -111.33786     17253781   0.28045467    409.30062 
   44500   -2324168.7    8434.8537   -2315733.9    604.21734    9.7602669     17220307   0.28099984    412.75266 
   44600   -2325100.8    8443.5324   -2316657.3    604.83902   -82.854527     17174782   0.28174467    416.05148 
   44700   -2325945.8    8434.2326   -2317511.5    604.17284    69.920317     17135576   0.28238931    419.27678 
   44800   -2326981.3    8451.3239     -2318530    605.39716   -14.652762     17096140    0.2830407    422.34023 
   44900   -2327951.1    8443.7019   -2319507.4    604.85116   -45.896971     17056040   0.28370615    425.38862 
   45000   -2328832.1    8436.7445   -2320395.4    604.35278    -76.39274     17031585   0.28411351    428.44285 
Loop time of 428.443 on 2 procs for 15000 steps with 108000 atoms

Performance: 3.025 ns/day, 7.934 hours/ns, 35.011 timesteps/s
99.4% CPU use with 2 MPI tasks x 1 OpenMP threads

MPI task timing breakdown:
Section |  min time  |  avg time  |  max time  |%varavg| %total
---------------------------------------------------------------
Pair    | 324.06     | 329.66     | 335.27     |  30.9 | 76.94
Neigh   | 52.66      | 53.439     | 54.217     |  10.6 | 12.47
Comm    | 4.3089     | 10.672     | 17.034     | 194.8 |  2.49
Output  | 13.051     | 13.051     | 13.052     |   0.0 |  3.05
Modify  | 19.878     | 19.91      | 19.942     |   0.7 |  4.65
Other   |            | 1.708      |            |       |  0.40

Nlocal:    54000 ave 54199 max 53801 min
Histogram: 1 0 0 0 0 0 0 0 0 1
Nghost:    19495 ave 19546 max 19444 min
Histogram: 1 0 0 0 0 0 0 0 0 1
Neighs:    2.63374e+06 ave 2.67182e+06 max 2.59566e+06 min
Histogram: 1 0 0 0 0 0 0 0 0 1

Total # of neighbors = 5267483
Ave neighs/atom = 48.773
Neighbor list builds = 1500
Dangerous builds = 1500

unfix 				temp_rescale
unfix 				2



# ------------------------- STEP 4b: COOLING 600 - 400 -------------------------

print "******************** Decreasing temperature from 600 K to 400 K ********************"
******************** Decreasing temperature from 600 K to 400 K ********************

neighbor			0.5 bin
neigh_modify		every 10 delay 0 check yes

fix					3 all npt temp 400.0 400.0 0.1 iso 1 1 1 drag 0.2
fix					temp_rescale all temp/rescale 100 400 400 0.1 0.9

timestep 			0.001

run 				15000
Per MPI rank memory allocation (min/avg/max) = 44.57 | 44.76 | 44.95 Mbytes
Step PotEng KinEng TotEng Temp Press Volume Density CPU 
   45000   -2328832.1    8436.7445   -2320395.4    604.35278    -76.39274     17031585   0.28411351            0 
   45100   -2330041.4    5905.9226   -2324135.5    423.06138   -253.58552     17011449   0.28444982     3.041532 
   45200     -2332359    5772.6568   -2326586.3    413.51509   -130.79477     16972405   0.28510418    6.0799179 
   45300   -2333911.9    5702.4207   -2328209.5    408.48384   -123.18203     16930934   0.28580251    9.1223009 
   45400     -2335026    5663.7117   -2329362.3    405.71098    7.3700416     16888297   0.28652406    12.169575 
   45500   -2336001.2    5653.6119   -2330347.6     404.9875   -12.964308     16858154   0.28703638     15.21863 
   45600   -2336928.9    5651.5365   -2331277.4    404.83883   -105.29511     16814636   0.28777925    18.271107 
   45700   -2337737.5    5642.5151     -2332095     404.1926   -67.470062     16760052   0.28871648    21.327272 
   45800   -2338696.4    5655.4987   -2333040.9    405.12266    21.641435     16698726    0.2897768     24.39017 
   45900   -2339475.4    5639.9177   -2333835.5    404.00654   -72.304224     16655914   0.29052163    27.461632 
   46000   -2340127.9    5628.5401   -2334499.4    403.19152   -155.98726     16632657   0.29092787    30.535896 
   46100   -2340876.8    5636.4532   -2335240.4    403.75837   -1.1632458     16599101   0.29151599    33.592933 
   46200     -2341761    5649.5358   -2336111.5    404.69552   -89.391358     16564342   0.29212772     36.57729 
   46300   -2342595.6    5645.7875   -2336949.8    404.42701   -204.71421     16526560   0.29279556    40.078889 
   46400   -2343408.5    5644.1364   -2337764.3    404.30874   -205.15749     16496678   0.29332594    43.642837 
   46500   -2344248.5    5646.2105   -2338602.3    404.45731   -168.92158     16467020   0.29385423    46.915844 
   46600   -2345090.8    5646.6179   -2339444.2     404.4865    -52.70155     16424990   0.29460617    50.184203 
   46700     -2346013    5652.7775   -2340360.2    404.92773   -89.570514     16368385   0.29562498    53.455785 
   46800   -2346943.8    5654.6918   -2341289.1    405.06486   -25.354752     16327962   0.29635685    56.732768 
   46900   -2347903.3    5657.0214   -2342246.3    405.23173   -127.06353     16292150   0.29700828    60.014701 
   47000   -2348856.3     5656.498   -2343199.8    405.19424   -78.712829     16249418   0.29778934    63.213951 
   47100   -2349511.7    5629.8728   -2343881.8    403.28699   -93.967807     16224754   0.29824203    66.314441 
   47200   -2350273.4     5638.404     -2344635     403.8981    -28.43473     16196049   0.29877061     69.41764 
   47300   -2351076.3    5642.7656   -2345433.6    404.21055   -103.68011     16154570   0.29953774    72.526167 
   47400     -2351966    5650.4866   -2346315.5    404.76362   -187.74787     16107317   0.30041648    75.636865 
   47500   -2352938.3    5657.6176   -2347280.7    405.27444   -68.863436     16052426   0.30144374    78.751421 
   47600   -2353917.8    5657.4254   -2348260.4    405.26068    -135.3547     16005918   0.30231965    81.869991 
   47700   -2354999.2    5666.7537   -2349332.4    405.92889    -324.7628     15974582   0.30291268    85.037479 
   47800   -2355983.8    5656.5365   -2350327.2      405.197    43.001327     15930821   0.30374476    88.209419 
   47900   -2357056.2    5665.1819     -2351391     405.8163  -0.80405642     15889803   0.30452885    91.384853 
   48000   -2358024.3    5657.0143   -2352367.3    405.23123   -129.27949     15849437   0.30530443    94.565937 
   48100   -2358985.4    5656.3809   -2353329.1    405.18585   -43.488369     15810203   0.30606206    97.736474 
   48200   -2359940.8    5655.0558   -2354285.8    405.09093   -166.30438     15761522   0.30700736    101.53361 
   48300   -2360837.8    5649.7482     -2355188    404.71073   -107.44955     15722543    0.3077685    105.10071 
   48400     -2361771    5653.7414   -2356117.2    404.99678   -81.609515     15693327   0.30834146    108.34479 
   48500     -2362753    5657.3907   -2357095.6    405.25819   -10.818447     15661680   0.30896453    111.53399 
   48600   -2363764.1    5660.6529   -2358103.5    405.49187   -39.720365     15627243   0.30964537    114.72834 
   48700     -2364654    5649.5406   -2359004.4    404.69586    7.9745655     15605366   0.31007947    117.92741 
   48800   -2365581.5    5652.5852   -2359928.9    404.91395   -12.086798     15577099   0.31064214     121.1306 
   48900   -2366469.1    5649.1631   -2360819.9    404.66882   -74.416403     15557592   0.31103164    124.33795 
   49000   -2367489.9    5660.7863   -2361829.1    405.50143    35.022508     15513838   0.31190885    127.55089 
   49100   -2368426.2    5654.5742   -2362771.7    405.05643    -55.33477     15474030   0.31271126    130.75981 
   49200   -2369416.6    5658.7536   -2363757.8    405.35582   -265.99779     15435090   0.31350018    133.97194 
   49300     -2370466    5664.0759   -2364801.9    405.73707   -230.41306     15387966   0.31446023    137.18925 
   49400   -2371625.1    5672.2129   -2365952.9    406.31995   -112.50521     15339050   0.31546304    140.41324 
   49500   -2372640.6     5660.165   -2366980.4    405.45692   -57.018959     15314362    0.3159716    143.64416 
   49600   -2373777.3    5670.7261   -2368106.6    406.21345    -87.70857     15281177   0.31665776    146.88489 
   49700   -2374900.2    5670.3092   -2369229.9    406.18358   -82.054621     15232253   0.31767484    150.12794 
   49800   -2376003.2    5667.9552   -2370335.3    406.01496   -224.49336     15179777   0.31877303    153.37743 
   49900   -2376967.6    5655.5706     -2371312    405.12781   -73.778381     15148695   0.31942708    156.55557 
   50000   -2377864.5    5649.6372   -2372214.8    404.70278    -104.4912     15130562   0.31980989    160.19329 
   50100   -2378726.9    5647.0779   -2373079.8    404.51944   -26.421076     15101787   0.32041925    163.84313 
   50200   -2379778.9    5663.2684   -2374115.6    405.67923   -145.82678     15054887   0.32141744    167.30639 
   50300   -2380873.3    5667.6445   -2375205.7    405.99271   -177.18955     15012642   0.32232191    170.77285 
   50400   -2382100.1    5678.0321     -2376422     406.7368   -293.00354     14974629   0.32314012    174.23529 
   50500   -2383182.7    5665.8471   -2377516.8    405.86395   -105.03612     14935132    0.3239947     177.7054 
   50600   -2384326.2    5671.4786   -2378654.7    406.26735   -220.18202     14895888   0.32484826    181.18269 
   50700   -2385480.8    5673.5086   -2379807.3    406.41277   -55.078104     14846001   0.32593984      184.667 
   50800   -2386410.7    5653.0886   -2380757.7    404.95002   -77.591036     14810399   0.32672336    188.15836 
   50900   -2387242.7    5644.7604     -2381598    404.35344   -42.043935     14791139    0.3271488    191.65778 
   51000   -2388239.3    5659.2232   -2382580.1    405.38946   -257.44108     14769852    0.3276203    195.16226 
   51100   -2389116.8    5648.7806   -2383468.1    404.64142   -85.820055     14743530    0.3282052    198.64423 
   51200   -2390043.7    5653.5163   -2384390.2    404.98066   -162.94676     14710886    0.3289335    202.13227 
   51300   -2390976.4    5652.9759   -2385323.4    404.94194   -250.62557     14660888   0.33005528    205.63005 
   51400   -2392185.8    5677.3586   -2386508.5    406.68856   -197.63404     14600907   0.33141114    209.06691 
   51500   -2393292.2    5669.2386   -2387622.9    406.10689   -45.053938     14556469   0.33242289      212.384 
   51600   -2394349.9    5663.9404     -2388686    405.72736   -28.901493     14519097   0.33327855    215.67029 
   51700   -2395472.9    5669.8302   -2389803.1    406.14927   -117.18962     14492873   0.33388157    219.22624 
   51800   -2396666.6    5674.5719     -2390992    406.48893   -190.41905     14449075   0.33489365    223.09381 
   51900   -2397946.4    5682.3951     -2392264    407.04934   -71.237939     14406674   0.33587929    226.42157 
   52000   -2399237.4    5683.7858   -2393553.6    407.14896   -104.87857     14358947   0.33699571    229.75569 
   52100   -2400394.5    5672.7993   -2394721.7    406.36196   -247.44312     14326708   0.33775402    233.08297 
   52200   -2401552.8    5671.9353   -2395880.9    406.30007   -142.83918     14292062   0.33857281    236.41997 
   52300   -2402591.2    5661.5915   -2396929.6     405.5591   -97.922447     14256514   0.33941702    239.76413 
   52400   -2403716.3    5668.6281   -2398047.7    406.06316   -226.19201     14213733   0.34043861    243.11532 
   52500   -2404864.6    5671.9766   -2399192.6    406.30303   -304.77004     14168618   0.34152261    246.47451 
   52600   -2405948.7    5665.7964   -2400282.9    405.86032   -152.37446     14126775   0.34253418     249.8423 
   52700     -2407113    5672.9192   -2401440.1    406.37055   -144.99512     14082160   0.34361939    253.22107 
   52800   -2408323.8    5677.1476   -2402646.6    406.67344   -137.01426     14040342   0.34464286     256.6534 
   52900   -2409639.3    5686.1491   -2403953.2    407.31825   -87.307774     13992505    0.3458211    260.09236 
   53000   -2410915.2    5681.3648   -2405233.8    406.97553   -52.960281     13947043   0.34694834    263.53716 
   53100   -2412207.4    5682.4953   -2406524.9    407.05651    44.341124     13906748   0.34795363    266.96604 
   53200     -2413655    5696.6223   -2407958.4    408.06848   -174.86638     13870260   0.34886898    270.40005 
   53300   -2414996.3    5687.2039   -2409309.1    407.39381   -93.186649     13825725   0.34999275     273.8458 
   53400   -2416322.7    5686.6089   -2410636.1    407.35119   -83.722501     13793502   0.35081037    277.22414 
   53500   -2417719.2    5692.6219   -2412026.6    407.78192   -99.927024     13763883   0.35156528    281.37736 
   53600   -2418911.5    5675.0769   -2413236.4    406.52511    -159.5584     13739532   0.35218838    285.24116 
   53700   -2420021.7    5666.2034   -2414355.5    405.88948   -185.27887     13702995   0.35312742    288.93985 
   53800   -2420961.5    5652.2114   -2415309.3    404.88718   -168.85529     13673516   0.35388875    292.58245 
   53900     -2421915    5654.3412   -2416260.6    405.03974   -81.939935     13650476   0.35448605    296.09233 
   54000   -2423051.9    5670.5595   -2417381.4    406.20151    -121.1817     13610673   0.35552272    299.60823 
   54100   -2424413.3    5689.2236   -2418724.1    407.53849    -227.7547     13541445   0.35734026    303.10645 
   54200   -2425820.3    5693.6054   -2420126.7    407.85237   -155.61992     13484798   0.35884136    306.61113 
   54300   -2427071.9    5679.8881     -2421392    406.86975   -108.61535     13440640   0.36002032    310.12491 
   54400     -2428334    5680.1959   -2422653.8    406.89181   -120.77281     13392974   0.36130164    313.64824 
   54500   -2429581.6     5678.759   -2423902.8    406.78887   -140.34068     13346739   0.36255323    317.17835 
   54600   -2430739.6    5670.7706   -2425068.8    406.21664   -206.75806     13307548   0.36362095    320.71419 
   54700   -2431862.1    5667.4685   -2426194.7     405.9801    35.033127     13273309   0.36455895    324.25526 
   54800   -2433004.8     5669.199   -2427335.6    406.10405    -117.9747     13249800   0.36520578    327.80657 
   54900   -2434211.6    5676.4313   -2428535.2    406.62214    23.541924     13225391   0.36587979    331.36082 
   55000   -2435474.6      5682.83   -2429791.7     407.0805   -46.654112     13184806   0.36700603    334.92348 
   55100   -2436822.7    5688.4243   -2431134.3    407.48123   -61.148376     13125121   0.36867497    338.55919 
   55200   -2438063.1     5678.537   -2432384.5    406.77297   -154.83609     13086957   0.36975008    342.67469 
   55300   -2439350.9    5682.5047   -2433668.4    407.05719   -155.47119     13045480   0.37092566    346.54411 
   55400   -2440778.4    5695.8475   -2435082.5    408.01298   -251.48827     12994319   0.37238607    350.32767 
   55500   -2442139.6    5688.8935   -2436450.8    407.51484   -223.52262     12949515    0.3736745    353.98667 
   55600   -2443518.2    5691.0012   -2437827.2    407.66583   -242.47095     12915046   0.37467179     357.5865 
   55700   -2444759.6    5679.3538   -2439080.3    406.83148   -5.7200165     12881523   0.37564685     361.1929 
   55800   -2445997.4    5678.1452   -2440319.3     406.7449   -64.135777     12837894   0.37692347    364.79649 
   55900   -2447189.3    5674.5569   -2441514.7    406.48786   -66.308759     12795166   0.37818216    368.40762 
   56000   -2448481.5    5682.5397     -2442799     407.0597    -236.4277     12755148   0.37936867    372.03068 
   56100     -2449902    5694.9078   -2444207.1    407.94567   -190.09644     12707565   0.38078919    375.64147 
   56200   -2451339.8    5695.7373   -2445644.1    408.00509   -1.2147583     12661237   0.38218251    379.26404 
   56300   -2452675.6    5687.0574   -2446988.5    407.38332   -190.88369     12627427   0.38320581    382.89734 
   56400   -2454112.6    5696.1708   -2448416.4    408.03614   -122.55469     12599452   0.38405666    386.54393 
   56500   -2455437.7    5687.5869   -2449750.1    407.42124   -50.989697     12576602   0.38475444    390.19395 
   56600   -2456655.4    5677.2392   -2450978.1       406.68   -162.28295     12543944   0.38575613    393.85018 
   56700   -2457910.2    5680.2705     -2452230    406.89715   -196.41945     12512271   0.38673262    397.47622 
   56800   -2459284.3    5690.2451     -2453594    407.61166   -146.24716     12468275   0.38809726     401.8217 
   56900   -2460736.5    5695.8555   -2455040.6    408.01355   -143.41528     12409828   0.38992509    405.93755 
   57000   -2462002.6    5680.7846   -2456321.8    406.93397   -88.351141     12370038   0.39117936    409.72332 
   57100   -2463458.3    5696.5731   -2457761.8    408.06496   -212.63833     12319973     0.392769     413.4101 
   57200   -2464758.4    5683.4554     -2459075    407.12529   -112.41752     12276201   0.39416944    417.16013 
   57300   -2466193.3    5694.9078   -2460498.4    407.94566   -362.15975     12239958    0.3953366    420.92134 
   57400   -2467719.7    5703.6923   -2462016.1    408.57493   -290.42031     12179267   0.39730664     424.6918 
   57500   -2469167.8    5694.1156   -2463473.6    407.88892   -195.48602     12115997   0.39938137    428.47271 
   57600   -2470524.9    5687.4076   -2464837.5     407.4084   -180.60154     12075217   0.40073014    432.26433 
   57700   -2471960.3    5695.0789   -2466265.3    407.95792   -412.38335     12043052   0.40180043    436.06422 
   57800   -2473255.7    5683.5415   -2467572.2    407.13146    -138.4335     12010377   0.40289356    439.87019 
   57900   -2474632.8    5690.5524   -2468942.2    407.63368   -173.48411     11976804   0.40402292    443.68284 
   58000   -2476047.8    5694.6039   -2470353.2     407.9239   -92.642747     11936087   0.40540115    447.50983 
   58100   -2477454.1    5692.1195     -2471762    407.74593   -51.963111     11885548   0.40712496    451.30869 
   58200     -2479010    5705.2002   -2473304.8    408.68295    -107.2417     11837488   0.40877788    455.11775 
   58300   -2480762.7    5723.4435   -2475039.3    409.98978   -286.04834     11794192   0.41027851    459.09903 
   58400   -2482229.4    5698.5074   -2476530.9    408.20352   -140.68723     11755535   0.41162766    463.54124 
   58500   -2483614.1    5690.5155   -2477923.6    407.63103   -200.98659     11716427   0.41300163    467.38547 
   58600   -2485042.5    5695.0402   -2479347.4    407.95515   -296.61935     11673369   0.41452502    471.22895 
   58700   -2486311.9    5680.0668   -2480631.8    406.88255   -65.810306     11633134   0.41595871    475.08159 
   58800   -2487580.3    5680.5802   -2481899.7    406.91933   -194.60333     11599597   0.41716133    478.93924 
   58900   -2488850.2    5680.5719   -2483169.6    406.91874   -207.88968     11563327   0.41846983    482.80338 
   59000   -2490140.6    5682.1739   -2484458.4    407.03349   -14.933474     11522355   0.41995786    486.67525 
   59100   -2491481.6    5686.1831   -2485795.4    407.32069   -272.53215     11488110   0.42120969    490.53436 
   59200   -2492953.1    5697.9575   -2487255.2    408.16413   -269.29505     11443046   0.42286846    494.39517 
   59300   -2494476.9    5702.9545   -2488773.9    408.52208    -230.3411     11397972   0.42454073    498.26515 
   59400   -2496143.7    5716.7526     -2490427    409.51048   -207.04481     11349241   0.42636363    502.14578 
   59500   -2497779.7    5711.7194   -2492067.9    409.14994    -241.0966     11295882   0.42837764    506.04002 
   59600   -2499524.8    5721.4002   -2493803.4    409.84341    -225.0142     11239042   0.43054411    509.94141 
   59700   -2501320.2    5724.7368   -2495595.5    410.08242   -180.54826     11184814   0.43263155    513.85432 
   59800   -2502961.2    5710.2723     -2497251    409.04628   -89.218418     11140714   0.43434409    517.76649 
   59900   -2504644.9     5715.932   -2498928.9     409.4517   -230.36984     11109579   0.43556138    522.42988 
   60000   -2506319.4    5715.3959     -2500604     409.4133   -399.80251     11066170   0.43726992    526.71421 
Loop time of 526.714 on 2 procs for 15000 steps with 108000 atoms

Performance: 2.461 ns/day, 9.754 hours/ns, 28.478 timesteps/s
99.5% CPU use with 2 MPI tasks x 1 OpenMP threads

MPI task timing breakdown:
Section |  min time  |  avg time  |  max time  |%varavg| %total
---------------------------------------------------------------
Pair    | 397.4      | 407.26     | 417.11     |  48.8 | 77.32
Neigh   | 67.207     | 68.8       | 70.393     |  19.2 | 13.06
Comm    | 4.4399     | 15.933     | 27.426     | 287.9 |  3.03
Output  | 13.07      | 13.071     | 13.072     |   0.0 |  2.48
Modify  | 19.88      | 19.922     | 19.963     |   0.9 |  3.78
Other   |            | 1.733      |            |       |  0.33

Nlocal:    54000 ave 54761 max 53239 min
Histogram: 1 0 0 0 0 0 0 0 0 1
Nghost:    22688.5 ave 23124 max 22253 min
Histogram: 1 0 0 0 0 0 0 0 0 1
Neighs:    3.34971e+06 ave 3.4504e+06 max 3.24902e+06 min
Histogram: 1 0 0 0 0 0 0 0 0 1

Total # of neighbors = 6699413
Ave neighs/atom = 62.0316
Neighbor list builds = 1500
Dangerous builds = 1500

unfix 				temp_rescale
unfix 				3



# ------------------------- STEP 4c: COOLING 400 - 300 -------------------------

print "******************** Decreasing temperature from 400 K to 300 K ********************"
******************** Decreasing temperature from 400 K to 300 K ********************

neighbor			0.5 bin
neigh_modify		every 10 delay 0 check yes

fix					4 all npt temp 300.0 300.0 0.1 iso 1 1 1 drag 0.2
fix					temp_rescale all temp/rescale 100 300 300 0.1 0.9

timestep 			0.001

[...]
   72700   -3126244.2    5481.2823     -3120763    392.64295   -20685.823    2189061.4    2.2104923      652.682 
   72800   -3142765.6     5444.372   -3137321.3    389.99893   -17559.131    2152147.4     2.248407    662.38464 
   72900   -3158326.1    5374.8261   -3152951.3    385.01712   -15495.389      2118222    2.2844175    671.31301 
   73000   -3172673.9    5288.0363   -3167385.8    378.80008   -12294.271    2090404.9    2.3148164     680.0119 
   73100   -3185996.8     5220.505   -3180776.3    373.96258   -10351.489    2066846.7    2.3412009    688.35937 
   73200   -3198540.1    5170.7573   -3193369.3    370.39898    -9115.965    2046076.6    2.3649669    696.81801 
   73300   -3210115.9    5095.7628   -3205020.2    365.02687   -7765.1759    2028305.8    2.3856873    705.25594 
   73400   -3220728.2    5023.3338   -3215704.8    359.83853     -5897.94      2013112     2.403693    714.22061 
   73500   -3230032.1     4927.182   -3225104.9    352.95085   -4377.6946    2001649.5    2.4174579     723.9007 
   73600     -3238272    4847.0844   -3233424.9    347.21318   -4278.1379    1991283.2    2.4300428    733.33821 
   73700   -3245733.3    4785.2112     -3240948    342.78099   -3450.1603    1981277.8    2.4423145    742.36566 
   73800   -3252704.5     4749.709   -3247954.8    340.23785    -2846.994      1973099    2.4524382    751.43867 
   73900   -3258735.8    4674.2084   -3254061.6    334.82949   -2221.1642    1965995.4    2.4612994    760.54347 
   74000   -3264088.1     4619.766   -3259468.3    330.92959   -1570.3044    1959617.4    2.4693103    769.60108 
   74100     -3268809    4568.3927   -3264240.6    327.24955    -909.2383    1954108.5    2.4762716    779.74828 
   74200   -3273074.6    4533.9346   -3268540.6     324.7812   -808.13115    1949334.1    2.4823366    788.73261 
   74300   -3277035.8    4510.3055   -3272525.5    323.08856   -937.16836    1945130.6    2.4877011      797.693 
   74400   -3280745.2    4490.1856     -3276255    321.64731   -76.534983      1941047    2.4929347    806.68314 
   74500   -3284234.8    4471.8241     -3279763    320.33201    255.46681    1937560.5    2.4974205    815.69082 
   74600   -3287308.9    4438.1266   -3282870.8    317.91814   -246.66119    1934669.1     2.501153    824.71933 
   74700   -3290139.8     4416.346   -3285723.5    316.35792   -84.705828    1931537.5    2.5052081    834.28538 
   74800   -3292729.8    4396.9682   -3288332.8    314.96983    -208.8047    1928740.4    2.5088412    844.26083 
   74900   -3295224.6    4389.6469   -3290834.9    314.44538   -88.149341    1925981.7    2.5124347     853.5305 
   75000   -3297536.9    4375.4586   -3293161.4    313.42902    521.68596    1923850.9    2.5152175    862.61026 
Loop time of 862.61 on 2 procs for 15000 steps with 108000 atoms

Performance: 1.502 ns/day, 15.974 hours/ns, 17.389 timesteps/s
99.5% CPU use with 2 MPI tasks x 1 OpenMP threads

MPI task timing breakdown:
Section |  min time  |  avg time  |  max time  |%varavg| %total
---------------------------------------------------------------
Pair    | 673.3      | 676.3      | 679.29     |  11.5 | 78.40
Neigh   | 136.74     | 136.97     | 137.2      |   2.0 | 15.88
Comm    | 11.406     | 14.612     | 17.819     |  83.9 |  1.69
Output  | 12.769     | 12.769     | 12.77      |   0.0 |  1.48
Modify  | 19.97      | 20.004     | 20.037     |   0.7 |  2.32
Other   |            | 1.96       |            |       |  0.23

Nlocal:    54000 ave 54281 max 53719 min
Histogram: 1 0 0 0 0 0 0 0 0 1
Nghost:    44825.5 ave 44868 max 44783 min
Histogram: 1 0 0 0 0 0 0 0 0 1
Neighs:    7.47643e+06 ave 7.48489e+06 max 7.46796e+06 min
Histogram: 1 0 0 0 0 0 0 0 0 1

Total # of neighbors = 14952856
Ave neighs/atom = 138.452
Neighbor list builds = 1500
Dangerous builds = 1500

unfix				temp_rescale
unfix 				4



# ------------------------- STEP 5: EQUILIBRATION 2 -------------------------

print "******************** Equilibration at 300 K ********************"
******************** Equilibration at 300 K ********************

fix					equilibration2 all nve
fix					temp_rescale all temp/rescale 100 300 300 0.1 0.9

timestep 			0.001

run					10000
Per MPI rank memory allocation (min/avg/max) = 69.41 | 69.41 | 69.42 Mbytes
Step PotEng KinEng TotEng Temp Press Volume Density CPU 
   75000   -3297536.9    4375.4586   -3293161.4    313.42902    521.68596    1923850.9    2.5152175            0 
   75100   -3299324.6    4386.6093     -3294938    314.22778    -20880.16    1923850.9    2.5152175    8.8489819 
   75200   -3301055.6    4381.8566   -3296673.7    313.88733   -37800.768    1923850.9    2.5152175    17.722335 
   75300   -3302721.5    4374.2859   -3298347.2    313.34502   -51288.276    1923850.9    2.5152175    26.529268 
   75400   -3304363.5    4371.4676   -3299992.1    313.14313   -66368.984    1923850.9    2.5152175     36.53758 
   75500   -3305838.3    4353.5369   -3301484.8    311.85869   -78102.694    1923850.9    2.5152175    45.795134 
   75600   -3307324.5    4352.9816   -3302971.5    311.81891    -89175.43    1923850.9    2.5152175    54.749138 
   75700   -3308679.3    4340.3683   -3304338.9    310.91539   -100111.65    1923850.9    2.5152175    63.674901 
   75800   -3309928.9    4328.4314   -3305600.5     310.0603   -110677.29    1923850.9    2.5152175    72.606089 
   75900   -3311060.3    4315.4112   -3306744.9    309.12762   -119637.55    1923850.9    2.5152175    81.549346 
   76000   -3312088.9    4303.3254   -3307785.6    308.26187   -127617.73    1923850.9    2.5152175    90.995723 
   76100   -3312926.3    4283.1269   -3308643.2    306.81499   -134728.14    1923850.9    2.5152175    100.65879 
   76200   -3313716.8    4276.3657   -3309440.5    306.33066   -139547.21    1923850.9    2.5152175    109.54068 
   76300   -3314475.9    4272.0241   -3310203.8    306.01966   -144364.33    1923850.9    2.5152175    118.41869 
   76400     -3315145     4263.776   -3310881.2    305.42881   -150720.75    1923850.9    2.5152175    127.30728 
   76500   -3315862.1    4267.0099   -3311595.1    305.66047   -154595.07    1923850.9    2.5152175    136.19977 
   76600   -3316544.5    4263.9403   -3312280.6    305.44059   -158489.11    1923850.9    2.5152175    144.98163 
   76700   -3317145.6    4255.7052   -3312889.9    304.85068   -163177.63    1923850.9    2.5152175    154.58723 
   76800   -3317673.9    4247.3534   -3313426.5    304.25241   -167865.41    1923850.9    2.5152175    163.96719 
   76900   -3318143.4    4240.8902   -3313902.5    303.78943   -170601.81    1923850.9    2.5152175     172.8892 
   77000   -3318578.5    4237.1142   -3314341.3    303.51894   -174575.46    1923850.9    2.5152175    181.81369 
   77100     -3319000     4234.918   -3314765.1    303.36162   -178002.14    1923850.9    2.5152175    190.67012 
   77200   -3319404.9    4233.1495   -3315171.7    303.23494   -180120.84    1923850.9    2.5152175    199.54124 
   77300   -3319856.1    4237.3577   -3315618.8    303.53638   -183705.17    1923850.9    2.5152175    208.45841 
   77400   -3320262.9    4234.0163   -3316028.9    303.29703   -187466.79    1923850.9    2.5152175    218.30573 
   77500   -3320669.8     4232.623   -3316437.1    303.19722   -190878.49    1923850.9    2.5152175    227.19917 
   77600   -3321015.5    4226.9454   -3316788.5    302.79051   -191828.75    1923850.9    2.5152175    236.09457 
   77700   -3321412.1    4231.7825   -3317180.4    303.13701   -195473.85    1923850.9    2.5152175     244.9956 
   77800   -3321805.7    4231.1453   -3317574.5    303.09136   -196770.29    1923850.9    2.5152175     253.7394 
   77900     -3322143    4225.8219   -3317917.2    302.71004   -197499.48    1923850.9    2.5152175    262.64992 
   78000   -3322514.8     4229.056   -3318285.7     302.9417   -200312.03    1923850.9    2.5152175    272.27879 
   78100   -3322857.9    4226.7424   -3318631.1    302.77597   -202540.44    1923850.9    2.5152175    282.21808 
   78200   -3323172.7    4223.3354   -3318949.3    302.53192   -204916.08    1923850.9    2.5152175    291.24342 
   78300   -3323468.4    4220.9009   -3319247.5    302.35752   -206827.82    1923850.9    2.5152175    300.12353 
   78400   -3323757.7    4220.0778   -3319537.6    302.29857   -208563.72    1923850.9    2.5152175    309.01477 
   78500     -3324036    4219.2023   -3319816.8    302.23585   -210451.98    1923850.9    2.5152175    317.75046 
   78600   -3324357.5    4223.2553   -3320134.3    302.52618   -212933.73    1923850.9    2.5152175    326.62517 
   78700   -3324622.9    4217.7932   -3320405.1    302.13491   -214499.22    1923850.9    2.5152175     336.2608 
   78800   -3324869.9    4215.6202   -3320654.3    301.97925   -216676.61    1923850.9    2.5152175    345.00586 
   78900   -3325070.8    4210.6868   -3320860.1    301.62586    -216897.1    1923850.9    2.5152175    353.75339 
   79000   -3325264.3    4209.4664   -3321054.8    301.53843   -218941.03    1923850.9    2.5152175      362.335 
   79100     -3325402    4203.9695     -3321198    301.14467   -220488.75    1923850.9    2.5152175    370.99622 
   79200   -3325545.2    4203.7568   -3321341.4    301.12943   -220576.95    1923850.9    2.5152175    379.66832 
   79300   -3325704.7    4206.1272   -3321498.6    301.29923   -222995.37    1923850.9    2.5152175    387.87754 
   79400   -3325858.2    4204.6485   -3321653.6    301.19331   -222003.37    1923850.9    2.5152175    397.86781 
   79500   -3326019.9    4205.6745   -3321814.3    301.26681   -224590.73    1923850.9    2.5152175    406.54769 
   79600   -3326206.8    4208.3109   -3321998.5    301.45566   -225430.47    1923850.9    2.5152175    415.23116 
   79700   -3326409.2    4209.8166   -3322199.4    301.56352   -226700.01    1923850.9    2.5152175    424.07056 
   79800   -3326625.5     4211.877   -3322413.6    301.71112   -227559.61    1923850.9    2.5152175    432.64556 
   79900   -3326804.4    4208.4349     -3322596    301.46454   -229217.34    1923850.9    2.5152175    441.27043 
   80000   -3326992.2    4208.7412   -3322783.5    301.48649   -230854.25    1923850.9    2.5152175    450.42839 
   80100   -3327119.6    4202.7182   -3322916.9    301.05504   -230711.97    1923850.9    2.5152175    460.00926 
   80200   -3327260.8    4203.6762   -3323057.1    301.12366   -232362.77    1923850.9    2.5152175    469.05467 
   80300   -3327443.9    4207.5605   -3323236.3    301.40191   -232597.11    1923850.9    2.5152175    477.88991 
   80400   -3327599.3    4205.4124   -3323393.9    301.24803   -233669.89    1923850.9    2.5152175    486.73499 
   80500   -3327738.5    4203.4034   -3323535.1    301.10412   -235088.27    1923850.9    2.5152175    495.26166 
   80600   -3327846.7    4200.4909   -3323646.2    300.89549   -235021.53    1923850.9    2.5152175    503.47813 
   80700   -3327966.4     4200.606   -3323765.8    300.90373   -235594.93    1923850.9    2.5152175    512.96407 
   80800   -3328061.8    4199.5399   -3323862.2    300.82736   -237087.41    1923850.9    2.5152175    521.97664 
   80900   -3328161.1    4198.7776   -3323962.3    300.77276    -237867.4    1923850.9    2.5152175    530.44508 
   81000   -3328274.9    4200.2218   -3324074.6    300.87621   -237833.16    1923850.9    2.5152175    538.90881 
   81100   -3328366.9    4198.2195   -3324168.7    300.73278   -238344.18    1923850.9    2.5152175     547.3596 
   81200   -3328454.5    4198.3465   -3324256.1    300.74188    -240410.4    1923850.9    2.5152175    555.68225 
   81300   -3328524.8     4195.586   -3324329.2    300.54413   -240670.27    1923850.9    2.5152175    563.95627 
   81400   -3328570.6    4193.7984   -3324376.8    300.41608   -241779.54    1923850.9    2.5152175    573.47201 
   81500   -3328630.6    4194.1741   -3324436.5    300.44299   -241877.57    1923850.9    2.5152175    583.04085 
   81600   -3328671.8     4192.749     -3324479    300.34091   -241648.97    1923850.9    2.5152175    591.66837 
   81700   -3328723.3    4194.0023   -3324529.3    300.43069   -243531.64    1923850.9    2.5152175     600.0478 
   81800     -3328793     4195.609   -3324597.4    300.54578   -243988.03    1923850.9    2.5152175     608.1004 
   81900     -3328830    4192.2068   -3324637.7    300.30207   -244092.16    1923850.9    2.5152175    616.45555 
   82000   -3328911.5    4196.5841   -3324714.9    300.61563   -243939.61    1923850.9    2.5152175    624.97988 
   82100   -3328981.4    4195.8971   -3324785.5    300.56642   -245474.67    1923850.9    2.5152175     634.3913 
   82200   -3329034.6    4194.0805   -3324840.5    300.43629   -244930.96    1923850.9    2.5152175    642.58399 
   82300   -3329106.3     4195.954   -3324910.4    300.57049   -245873.58    1923850.9    2.5152175    650.78285 
   82400   -3329169.5     4195.036   -3324974.5    300.50473   -246039.08    1923850.9    2.5152175    659.35943 
   82500   -3329251.5    4196.7954   -3325054.7    300.63076   -246556.65    1923850.9    2.5152175    668.09661 
   82600   -3329327.3    4196.5227   -3325130.8    300.61123   -246704.14    1923850.9    2.5152175    676.07983 
   82700   -3329384.4    4194.3916     -3325190    300.45858   -247011.52    1923850.9    2.5152175    684.08038 
   82800   -3329444.9    4194.4323   -3325250.5    300.46149   -247095.56    1923850.9    2.5152175    692.88906 
   82900   -3329493.7    4193.4476   -3325300.2    300.39095   -247585.84    1923850.9    2.5152175    701.35907 
   83000   -3329527.1    4192.2612   -3325334.8    300.30596   -247839.09    1923850.9    2.5152175    709.41032 
   83100   -3329552.7    4190.5852   -3325362.1    300.18591   -248319.08    1923850.9    2.5152175    717.59789 
   83200   -3329587.4    4192.0064   -3325395.3    300.28772    -248305.5    1923850.9    2.5152175    725.95022 
   83300   -3329639.6    4193.2677   -3325446.4    300.37807   -248570.33    1923850.9    2.5152175    734.14836 
   83400   -3329691.5    4194.0807   -3325497.5     300.4363   -248768.14    1923850.9    2.5152175    742.35076 
   83500   -3329731.5    4192.5056     -3325539    300.32347   -249430.21    1923850.9    2.5152175    751.00313 
   83600   -3329794.6    4194.5759     -3325600    300.47177      -249349    1923850.9    2.5152175    759.99465 
   83700   -3329834.4    4192.5712   -3325641.9    300.32817   -249179.29    1923850.9    2.5152175     768.7064 
   83800   -3329839.9    4189.3246   -3325650.6    300.09561    -249312.8    1923850.9    2.5152175    777.12186 
   83900   -3329893.5    4193.3466   -3325700.2    300.38372   -249645.11    1923850.9    2.5152175    785.32835 
   84000   -3329918.3    4191.0917   -3325727.3    300.22219   -249611.52    1923850.9    2.5152175    793.69242 
   84100   -3329951.6    4191.2805   -3325760.4    300.23572   -249208.27    1923850.9    2.5152175    801.73551 
   84200   -3329973.7      4190.72     -3325783    300.19556   -250421.18    1923850.9    2.5152175    810.26869 
   84300   -3329984.2    4189.3992   -3325794.8    300.10095   -249500.25    1923850.9    2.5152175    819.15315 
   84400     -3330003    4190.1599   -3325812.9    300.15544   -250126.43    1923850.9    2.5152175    827.44405 
   84500   -3330046.1    4192.1293   -3325853.9    300.29652   -250339.64    1923850.9    2.5152175    835.65003 
   84600   -3330075.8    4191.4505   -3325884.3    300.24789    -250347.7    1923850.9    2.5152175    843.69836 
   84700   -3330074.9    4187.6569   -3325887.2    299.97615    -251117.3    1923850.9    2.5152175    851.74773 
   84800     -3330083     4189.054     -3325894    300.07622   -251006.07    1923850.9    2.5152175    859.79987 
   84900   -3330116.3    4191.1666   -3325925.2    300.22755   -250838.55    1923850.9    2.5152175    868.01464 
   85000   -3330142.3    4191.5012   -3325950.8    300.25152   -251542.59    1923850.9    2.5152175    877.78473 
Loop time of 877.785 on 2 procs for 10000 steps with 108000 atoms

Performance: 0.984 ns/day, 24.383 hours/ns, 11.392 timesteps/s
99.6% CPU use with 2 MPI tasks x 1 OpenMP threads

MPI task timing breakdown:
Section |  min time  |  avg time  |  max time  |%varavg| %total
---------------------------------------------------------------
Pair    | 722.15     | 723.02     | 723.89     |   3.2 | 82.37
Neigh   | 129.57     | 130.47     | 131.38     |   8.0 | 14.86
Comm    | 8.2647     | 10.119     | 11.973     |  58.3 |  1.15
Output  | 8.3907     | 8.3912     | 8.3916     |   0.0 |  0.96
Modify  | 4.2618     | 4.2852     | 4.3086     |   1.1 |  0.49
Other   |            | 1.493      |            |       |  0.17

Nlocal:    54000 ave 54244 max 53756 min
Histogram: 1 0 0 0 0 0 0 0 0 1
Nghost:    44702 ave 44705 max 44699 min
Histogram: 1 0 0 0 0 0 0 0 0 1
Neighs:    7.48926e+06 ave 7.49218e+06 max 7.48633e+06 min
Histogram: 1 0 0 0 0 0 0 0 0 1

Total # of neighbors = 14978514
Ave neighs/atom = 138.69
Neighbor list builds = 829
Dangerous builds = 659

unfix				temp_rescale
unfix				equilibration2



# ------------------------- STEP : INSTANTANEOUS EXPANSION/CONTRACTION -------------------------

# print "******************** Instantaneous contraction to required density ********************"
# timestep			0.0005
# fix					inst2 all nvt temp 300 300 0.05
# fix					inst1 all deform 1 x scale 0.79 y scale 0.79 z scale 0.79
# run					1000
# unfix				inst1
# unfix				inst2



# ------------------------- STEP : EQUILIBRATION 3 -------------------------

# print "******************** Equilibration at 300 K ********************"

# fix					equilibration3 all nve
# fix					temp_rescale all temp/rescale 100 300 300 0.1 0.9

# timestep 			0.001

# run					10000

# unfix				temp_rescale
# unfix				equilibration3



# ------------------------- STEP 6: MINIMIZATION -------------------------

print "******************** Energy minimization ********************"
******************** Energy minimization ********************

minimize 			0.01 0 1000 1000	# What does the last 1000 refer to?
WARNING: Using 'neigh_modify every 1 delay 0 check yes' setting during minimization (../min.cpp:168)
Per MPI rank memory allocation (min/avg/max) = 77.29 | 77.29 | 77.29 Mbytes
Step PotEng KinEng TotEng Temp Press Volume Density CPU 
   85000   -3330142.3    4191.5012   -3325950.8    300.25152   -251542.59    1923850.9    2.5152175            0 
   85001   -3332774.3    4191.5012   -3328582.8    300.25152    -263523.6    1923850.9    2.5152175   0.50055289 
Loop time of 0.500567 on 2 procs for 1 steps with 108000 atoms

99.8% CPU use with 2 MPI tasks x 1 OpenMP threads

Minimization stats:
  Stopping criterion = energy tolerance
  Energy initial, next-to-last, final = 
        -3330142.26494     -3330142.26494      -3332774.2547
  Force two-norm initial, final = 1221.65 615.708
  Force max component initial, final = 11.1735 14.0755
  Final line search alpha, max atom move = 0.00894977 0.125972
  Iterations, force evaluations = 1 2

MPI task timing breakdown:
Section |  min time  |  avg time  |  max time  |%varavg| %total
---------------------------------------------------------------
Pair    | 0.40778    | 0.40804    | 0.4083     |   0.0 | 81.51
Neigh   | 0          | 0          | 0          |   0.0 |  0.00
Comm    | 0.0022955  | 0.0025657  | 0.002836   |   0.5 |  0.51
Output  | 0          | 0          | 0          |   0.0 |  0.00
Modify  | 0          | 0          | 0          |   0.0 |  0.00
Other   |            | 0.08997    |            |       | 17.97

Nlocal:    54000 ave 54244 max 53756 min
Histogram: 1 0 0 0 0 0 0 0 0 1
Nghost:    44702 ave 44705 max 44699 min
Histogram: 1 0 0 0 0 0 0 0 0 1
Neighs:    7.48926e+06 ave 7.49218e+06 max 7.48633e+06 min
Histogram: 1 0 0 0 0 0 0 0 0 1

Total # of neighbors = 14978514
Ave neighs/atom = 138.69
Neighbor list builds = 0
Dangerous builds = 0
min_style			cg



# ------------------------- SIMULATION DONE -------------------------

print "******************** End ********************"
******************** End ********************
Total wall time: 0:49:52
