LAMMPS (12 Dec 2018)
  using 1 OpenMP thread(s) per MPI task
# Input file for Aluminium crystal

# Run command:  lmp -in in.aluminium



# ------------------------- ATOM INITIALIZATION -------------------------

units 			metal
dimension		3
boundary		p	p	p
atom_style		atomic

print "******************** Model initialized ********************"
******************** Model initialized ********************



# ------------------------- ATOM DEFINITION -------------------------

lattice			fcc 4.05
Lattice spacing in x,y,z = 4.05 4.05 4.05
region			whole block 0 30 0 30 0 30
region			crystal block 0 30 0 30 0 30
create_box		1 whole
Created orthogonal box = (0 0 0) to (121.5 121.5 121.5)
  1 by 1 by 2 MPI processor grid
create_atoms	1 region crystal
Created 108000 atoms
  Time spent = 0.00862408 secs

print "******************** Atoms generated ********************"
******************** Atoms generated ********************



# ------------------------- FORCE FIELDS / POTENTIAL -------------------------

pair_style		lj/cut 2.5
pair_coeff		* * .3920 2.62 2.5

# pair_style		eam/alloy
# pair_coeff		* * Al_Zhou04.eam.alloy Al

print "******************** Force field set ********************"
******************** Force field set ********************



# ------------------------- SETTINGS -------------------------

mass				1 26.982

thermo_style		custom step pe ke etotal temp press vol density cpu
thermo				100

dump			 	1 all custom 100 dump_loc_atom-108000_ts-9000 id type x y z

reset_timestep		0



# ------------------------- STEP 1: EQUILIBRATION -------------------------

print "******************** Equilibration at 300 K ********************"
******************** Equilibration at 300 K ********************

velocity 			all create 300.0 199 mom yes rot no dist gaussian

fix					equilibration all npt temp 300 300 0.1 iso 1 1 1 drag 0.2

timestep 			0.001

run					10000
Neighbor list info ...
  update every 1 steps, delay 10 steps, check yes
  max neighbors/atom: 2000, page size: 100000
  master list distance cutoff = 4.5
  ghost atom cutoff = 4.5
  binsize = 2.25, bins = 54 54 54
  1 neighbor lists, perpetual/occasional/extra = 1 0 0
  (1) pair lj/cut, perpetual
      attributes: half, newton on
      pair build: half/bin/atomonly/newton
      stencil: half/bin/3d/newton
      bin: standard
Per MPI rank memory allocation (min/avg/max) = 22.02 | 22.02 | 22.02 Mbytes
Step PotEng KinEng TotEng Temp Press Volume Density CPU 
       0            0    4187.9899    4187.9899          300    2493.9968    1793613.4     2.697852            0 
     100    2188.8055    4292.4312    6481.2367    307.48149    21401.856    1839247.7    2.6309145   0.45259619 
     200    2272.8742    4699.5345    6972.4087    336.64368    21692.344    1895852.8    2.5523624   0.95792103 
     300    2246.3583    5006.6053    7252.9636    358.64021    21019.729    1950384.9    2.4809993    1.4953232 
     400    2269.0434    5207.6821    7476.7255    373.04403    20707.577    2004706.9     2.413771    2.0135241 
     500    2248.7705    5326.4164    7575.1869    381.54937    20066.923    2058866.4    2.3502756    2.5238991 
     600    2176.0029    5422.9751     7598.978     388.4662    19047.828      2113343    2.2896915    3.0326531 
     700    2107.9229    5477.3003    7585.2232     392.3577    18092.591    2168041.4    2.2319239    3.5411332 
     800    2052.9854    5505.3927     7558.378    394.37005    17277.335    2222645.7    2.1770917    4.0486722 
     900    1921.5817    5510.1002    7431.6819    394.70727    15942.584    2277178.5    2.1249557    4.5835831 
    1000    1837.1773    5489.3014    7326.4787    393.21738    14994.573    2331324.2     2.075603     5.305114 
    1100    1734.6828    5482.4141    7217.0969    392.72402    13972.484    2384987.4     2.028901    5.8021801 
    1200    1682.0049    5465.1325    7147.1374    391.48608    13320.334    2438466.7    1.9844041    6.3020811 
    1300    1622.3484    5428.5232    7050.8716    388.86363    12627.599    2491562.8    1.9421158    6.7959802 
    1400    1553.9662    5405.5176    6959.4838    387.21566    11947.432    2544216.8    1.9019226       7.2909 
    1500    1487.4405    5378.9878    6866.4282    385.31524    11289.559    2596733.8    1.8634576    7.7541471 
    1600    1320.0909    5340.1678    6660.2587    382.53443    10055.928    2648896.3    1.8267621     8.245157 
    1700    1333.0768    5287.7546    6620.8314     378.7799    9911.8281    2700771.6    1.7916744     8.734293 
    1800    1274.3308    5259.8447    6534.1756    376.78062    9382.5366    2752688.8    1.7578825    9.2254531 
    1900    1230.9637    5220.9161    6451.8799    373.99203    8949.2424    2804421.4    1.7254552    9.7081852 
    2000    1150.2219     5190.605    6340.8269    371.82074    8324.6361    2856100.8    1.6942341    10.189219 
    2100    1087.2805    5156.1964     6243.477    369.35593    7820.0781    2907629.4    1.6642092    10.661822 
    2200    1041.9377    5112.5024    6154.4401    366.22598    7426.0763    2959295.6    1.6351538     11.10129 
    2300    955.24343    5074.9963    6030.2398     363.5393    6832.2255    3010826.8    1.6071676     11.56709 
    2400    988.23778    5038.9381    6027.1759    360.95632    6887.5517    3062220.6    1.5801943    12.031459 
    2500    901.40878     4991.073    5892.4818    357.52758    6306.3116    3113700.4    1.5540684    12.478245 
    2600    878.05812    4969.8558    5847.9139    356.00772    6080.8899    3165212.6    1.5287767    12.942277 
    2700    837.49277    4940.6853    5778.1781    353.91814    5771.6542    3216976.6    1.5041774    13.425631 
    2800    850.46347    4913.9412    5764.4046    352.00236    5737.5834    3268634.1    1.4804053    13.890416 
    2900    798.16813    4890.5455    5688.7136    350.32645    5391.2496    3320609.5    1.4572335    14.417306 
    3000    761.34139    4865.9272    5627.2686    348.56296    5126.5621    3372704.8    1.4347249    14.911808 
    3100    729.74533    4846.7527    5576.4981    347.18943    4893.3425    3425080.3    1.4127854    15.387403 
    3200     753.6873    4814.0182    5567.7054    344.84454    4916.2052    3477505.6    1.3914869    15.913885 
    3300    692.85409    4781.5497    5474.4038    342.51871    4565.0087    3530168.4    1.3707288    16.438538 
    3400    665.97514    4758.0555    5424.0307    340.83574    4372.9677    3582910.5     1.350551     16.93196 
    3500    639.20205    4736.5468    5375.7488      339.295    4187.0278    3635910.4    1.3308643    17.434833 
    3600    654.94827    4713.4171    5368.3654    337.63814    4185.7421    3689351.6    1.3115864    17.881346 
    3700    610.19826      4706.31    5316.5083    337.12904    3933.6704    3743231.3    1.2927076    18.358387 
    3800    577.42806    4691.5859     5269.014     336.0743     3736.961    3797049.2    1.2743852    18.880461 
    3900    534.55912    4674.4018    5208.9609    334.84334    3501.9897      3851214    1.2564618    19.356069 
    4000    509.25459    4666.0406    5175.2952     334.2444    3345.6426    3906246.4    1.2387604    19.841933 
    4100    563.50347    4653.5207    5217.0242    333.34756    3515.4952    3961181.5    1.2215808    20.307337 
    4200     534.2023    4628.1517     5162.354    331.53029    3340.7291    4016633.1    1.2047163    20.736092 
    4300    494.21919    4615.3872    5109.6064    330.61593    3138.9317    4072227.8    1.1882693    21.190759 
    4400    500.37973    4599.0855    5099.4653    329.44818    3118.8262    4128262.8    1.1721403    21.623429 
    4500    506.45104    4579.0464    5085.4974    328.01271    3093.9702    4184703.8    1.1563312    22.078227 
    4600    492.00529    4565.8109    5057.8162    327.06461    2994.2919    4241512.7    1.1408438    22.508396 
    4700    465.01042    4556.5164    5021.5268    326.39881    2852.5074    4298622.7    1.1256869    22.958222 
    4800    458.62963     4538.025    4996.6546    325.07421    2784.7786    4355804.1    1.1109093    23.383868 
    4900    461.37167    4527.4907    4988.8624     324.3196    2758.2586    4413555.3    1.0963731    23.831067 
    5000    430.35086    4519.7596    4950.1105    323.76579     2609.862    4471976.3    1.0820503    24.255688 
    5100     417.9573    4510.1135    4928.0708    323.07481    2530.9378    4530549.1    1.0680611    24.693001 
    5200    418.55756    4493.2927    4911.8502    321.86988    2496.7809    4589507.6    1.0543404    25.105488 
    5300    407.91243    4478.4741    4886.3865    320.80837    2424.0087    4648797.2    1.0408936    25.538476 
    5400    374.41289    4480.1752    4854.5881    320.93023    2280.7253      4708840    1.0276211    25.945548 
    5500    397.67204    4461.6189     4859.291    319.60098    2324.4954    4768790.1    1.0147025    26.373198 
    5600     418.9909    4449.0301     4868.021     318.6992    2364.7978    4829465.9    1.0019541    26.779475 
    5700    363.95142    4445.5076     4809.459    318.44687    2153.9877    4890915.4   0.98936559    27.204655 
    5800    372.55796    4435.3516    4807.9095    317.71936    2151.4437    4952381.6   0.97708613    27.610828 
    5900    360.22809    4427.6627    4787.8908    317.16858    2086.5272    5014802.4   0.96492405    28.036101 
    6000    352.12975    4424.4408    4776.5706    316.93778    2034.1559    5077431.3   0.95302194    28.441171 
    6100    345.59948    4417.9613    4763.5607    316.47363    1987.8231      5140653   0.94130131    28.858126 
    6200    352.86424    4410.8115    4763.6757    315.96147    1984.0898      5204005    0.9298422    29.251996 
    6300    324.59067    4409.2002    4733.7908    315.84605    1874.2791    5267944.2   0.91855631    29.666423 
    6400    305.03998     4405.403     4710.443    315.57404    1793.1125    5332604.1   0.90741847    30.062025 
    6500    355.30657    4395.4896    4750.7962    314.86391    1917.6106    5397681.2   0.89647817    30.488662 
    6600    331.70535    4380.5251    4712.2304    313.79195    1823.3295    5463190.9   0.88572842    30.893846 
    6700    304.63635     4373.872    4678.5083    313.31537    1722.7297    5528973.2   0.87519024    31.317686 
    6800    298.88246    4367.0799    4665.9624    312.82883      1681.77    5595747.3   0.86474659    31.718438 
    6900    323.70442    4360.5316     4684.236    312.35975    1731.2041    5662780.1   0.85451021    32.137488 
    7000    277.61682    4356.0381    4633.6549    312.03787    1581.2061    5730414.1   0.84442474    32.533933 
    7100    278.97103    4350.5535    4629.5246    311.64499    1566.2971    5798708.7   0.83447948    32.941654 
    7200    278.87774    4347.0273     4625.905    311.39239    1547.9963    5867805.4   0.82465301    33.327372 
    7300    266.02374    4348.3686    4614.3924    311.48847    1494.9058    5937417.3   0.81498456    33.731917 
    7400    270.71511    4345.0666    4615.7817    311.25194    1488.8831    6006874.2   0.80556097     34.12241 
    7500     264.4064    4341.7074    4606.1138    311.01131    1456.2194    6077318.6   0.79622341    34.535686 
    7600    251.29364     4334.926    4586.2196    310.52553    1403.8954    6148340.7    0.7870259    34.928054 
    7700    242.43751    4329.6258    4572.0633    310.14586    1364.6314    6219895.1   0.77797187    36.191893 
    7800    262.76956    4321.3543    4584.1238    309.55334     1398.378    6291901.7    0.7690685    36.587815 
    7900    243.44801    4314.1756    4557.6236    309.03911    1332.3479    6364507.1   0.76029507    36.999541 
    8000    254.11865    4311.6749    4565.7936    308.85998    1342.9622    6438288.6   0.75158224     37.39057 
    8100    253.22217    4315.3063    4568.5285    309.12011    1326.2764      6512553   0.74301175    37.793039 
    8200    243.73194    4308.8581      4552.59     308.6582    1287.6288    6587165.9   0.73459565    38.170636 
    8300    235.10825    4304.0147    4539.1229    308.31125    1251.8588    6662492.8   0.72629023    38.572574 
    8400    271.60125    4296.6419    4568.2431    307.78311    1322.3456    6737972.5   0.71815422    38.956759 
    8500    228.08747    4302.0725    4530.1599    308.17212    1207.9324    6814707.4   0.71006767     39.34265 
    8600    212.26767    4300.7859    4513.0536    308.07996    1156.3945    6892015.1   0.70210284    39.744494 
    8700    217.88814    4296.1707    4514.0588    307.74936    1156.3702    6970125.7   0.69423474    40.131423 
    8800    222.79266    4289.2017    4511.9943    307.25014     1153.575    7048494.9   0.68651584    40.535762 
    8900    206.44832    4283.8512    4490.2995    306.86687    1101.3243    7127487.7    0.6789073     40.92272 
    9000    214.59958    4284.2989    4498.8984    306.89894     1109.005    7207481.9   0.67137226    41.326136 
    9100    203.46633    4280.1899    4483.6563     306.6046    1070.2044    7287865.5   0.66396717    41.724867 
    9200     191.5359     4281.333    4472.8689    306.68648    1034.1906    7369025.4   0.65665446    42.096313 
    9300    218.92004    4276.9774    4495.8974    306.37448    1080.8684      7450950   0.64943442    42.483101 
    9400    180.57643    4275.6709    4456.2473    306.28088    987.30001      7533551   0.64231376     42.85598 
    9500    203.49644    4275.8661    4479.3625    306.29487    1024.8054    7616961.4   0.63528002    43.244399 
    9600    174.52409    4271.7532    4446.2773    306.00025    952.50294    7700759.2   0.62836706     43.61622 
    9700    190.89442    4269.0944    4459.9888    305.80979    976.48677    7785656.9   0.62151511    44.002532 
    9800    171.59382     4269.178    4440.7719    305.81578    926.41277    7871026.7   0.61477411    44.378895 
    9900    188.47609    4264.2039    4452.6799    305.45946    949.57868    7956978.1   0.60813331     44.77157 
   10000    192.69984    4258.5198    4451.2197     305.0523    946.29657      8043648    0.6015807    45.146791 
Loop time of 45.1468 on 2 procs for 10000 steps with 108000 atoms

Performance: 19.138 ns/day, 1.254 hours/ns, 221.499 timesteps/s
96.7% CPU use with 2 MPI tasks x 1 OpenMP threads

MPI task timing breakdown:
Section |  min time  |  avg time  |  max time  |%varavg| %total
---------------------------------------------------------------
Pair    | 12.917     | 13.015     | 13.114     |   2.7 | 28.83
Neigh   | 5.7381     | 5.8009     | 5.8637     |   2.6 | 12.85
Comm    | 2.2049     | 2.3914     | 2.578      |  12.1 |  5.30
Output  | 9.0577     | 9.0578     | 9.058      |   0.0 | 20.06
Modify  | 12.771     | 12.888     | 13.006     |   3.3 | 28.55
Other   |            | 1.993      |            |       |  4.41

Nlocal:    54000 ave 54003 max 53997 min
Histogram: 1 0 0 0 0 0 0 0 0 1
Nghost:    10283.5 ave 10294 max 10273 min
Histogram: 1 0 0 0 0 0 0 0 0 1
Neighs:    123180 ave 123239 max 123120 min
Histogram: 1 0 0 0 0 0 0 0 0 1

Total # of neighbors = 246359
Ave neighs/atom = 2.2811
Neighbor list builds = 263
Dangerous builds = 0

unfix				equilibration



# ------------------------- STEP 2: INCREASE TEMPERATURE -------------------------

print "******************** Increasing temperature to 700 K ********************"
******************** Increasing temperature to 700 K ********************

neighbor			0.5 bin
neigh_modify		every 10 delay 0 check yes

velocity			all create 700.0 199 mom yes rot yes dist gaussian

fix					inc_temp all npt temp 700.0 700.0 0.1 iso 1 1 1 drag 0.2

timestep 			0.001

run 				10000
Per MPI rank memory allocation (min/avg/max) = 27.28 | 27.29 | 27.29 Mbytes
Step PotEng KinEng TotEng Temp Press Volume Density CPU 
   10000    192.69984    9771.9765    9964.6763          700    1678.4296      8043648    0.6015807            0 
   10100    394.05005    9763.6562    10157.706    699.40399     2032.632    8150515.5   0.59369292   0.38203502 
   10200    375.79044    9783.5203    10159.311    700.82692    1972.4482    8270440.5   0.58508412   0.76554084 
   10300    374.28345    9815.2561     10189.54    703.10027    1948.6263    8376964.1   0.57764404     1.151921 
   10400    369.26145    9784.4778    10153.739    700.89551    1910.9254    8480697.7   0.57057846    1.5398049 
   10500    341.65038    9783.5463    10125.197    700.82879    1838.9266    8582265.3    0.5638259    1.9305499 
   10600    355.78084    9787.9288     10143.71    701.14272    1843.3934    8683147.9   0.55727525    2.3230889 
   10700    392.46886    9779.6256    10172.094    700.54793    1885.9893      8783498   0.55090847    2.7175028 
   10800    339.83312    9782.2756    10122.109    700.73776    1774.0595      8883808   0.54468798     3.114105 
   10900    353.81244    9790.6586    10144.471    701.33827    1777.6529    8984482.4   0.53858455    3.5117788 
   11000    347.70402     9797.571    10145.275    701.83342    1749.6722    9084991.1    0.5326261      3.91998 
   11100    335.14551    9797.8689    10133.014    701.85476    1709.7908    9185807.2   0.52678042    4.2989941 
   11200    320.83463    9790.4974    10111.332    701.32672    1666.5165    9287034.4    0.5210386      4.67875 
   11300    323.06901    9781.0588    10104.128    700.65059    1649.9616    9388577.6   0.51540325    5.0608549 
   11400    339.77794    9781.2826    10121.061    700.66663    1659.3381    9490524.6    0.5098668    5.4452028 
   11500    300.11172    9777.8408    10077.952    700.42008    1575.4785      9593125   0.50441367    5.8318949 
   11600    310.84752    9774.4399    10085.287    700.17646    1577.0472    9695877.2   0.49906814    6.2226179 
   11700    331.86718     9744.614    10076.481    698.03993    1588.6507    9799425.2   0.49379462    6.6140358 
   11800    322.86855    9744.3655    10067.234    698.02213     1560.003    9903699.2   0.48859555     7.006026 
   11900    302.12778    9775.7862    10077.914    700.27291    1514.2319     10008546   0.48347718      7.39237 
   12000    299.98924    9809.1198    10109.109     702.6607    1499.0793     10114472   0.47841386    7.7857258 
   12100    323.30069    9777.7225    10101.023    700.41161    1514.3512     10221043    0.4734256      8.15329 
   12200     310.9077    9767.6052    10078.513    699.68687    1479.3492     10327856   0.46852932     8.522629 
   12300    285.43216    9778.2822    10063.714     700.4517    1426.8518     10435754   0.46368508    8.8923049 
   12400    264.30658    9778.9436     10043.25    700.49908     1381.801     10544465   0.45890459    9.2727509 
   12500    267.72866    9748.2027    10015.931    698.29701    1369.1866     10654061   0.45418395    9.6593349 
   12600    290.82149    9750.7647    10041.586    698.48053    1387.7526     10763970   0.44954636    10.043783 
   12700    269.91728    9804.5361    10074.453    702.33235    1350.0323     10875168   0.44494977    10.422042 
   12800    278.70041    9816.3565    10095.057    703.17909    1348.8734     10987781   0.44038949    10.805645 
   12900    270.84244    9773.7651    10044.608    700.12813    1320.3086     11101013   0.43589746    11.189485 
   13000    237.37169    9773.6755    10011.047    700.12171    1261.0272     11214698   0.43147872    11.584295 
   13100     275.3789    9774.9448    10050.324    700.21263    1300.4417     11329436   0.42710895    11.947933 
   13200    282.23101    9760.0066    10042.238    699.14256      1294.65     11444938   0.42279859    12.315967 
   13300    253.02002    9745.7616    9998.7816    698.12214    1242.5588     11561581   0.41853302    12.685201 
   13400    234.21181    9761.2066    9995.4184    699.22851     1205.234     11678758   0.41433373    13.057406 
   13500    268.29233    9810.8772     10079.17    702.78659    1242.9659     11797866   0.41015072     13.43075 
   13600    265.12462    9784.8484    10049.973    700.92206    1222.2881     11917900   0.40601979     13.80938 
   13700    243.91055    9757.5626    10001.473    698.96748    1182.2932     12038430    0.4019547    14.188414 
   13800    218.01748    9769.2294    9987.2469    699.80322    1137.9418     12159511   0.39795213    14.569928 
   13900    225.22957    9780.6551    10005.885    700.62168    1136.4089     12281945    0.3939851    14.953756 
   14000    242.93103    9769.2452    10012.176    699.80435    1145.0633     12405332   0.39006641    15.360196 
   14100    217.93733    9741.3513    9959.2886    697.80621    1101.8784     12529849   0.38619007    15.736169 
   14200    246.42654    9758.4387    10004.865    699.03024    1126.7864     12655553   0.38235415    16.112667 
   14300    254.46534    9803.2691    10057.734     702.2416    1129.6146     12782397   0.37855995    16.484772 
   14400    220.51478    9784.4692    10004.984    700.89489    1076.2776     12910529   0.37480288    16.855215 
   14500     196.0254    9741.5376     9937.563    697.81956    1032.5166     13039278   0.37110209    17.227607 
   14600    206.33137    9758.7955    9965.1269     699.0558    1035.9475     13169115   0.36744331    17.609167 
   14700     238.4321    9788.2006    10026.633    701.16219    1065.5448     13299950   0.36382868    17.991302 
   14800    209.76028    9791.8275    10001.588      701.422    1021.5837     13432482   0.36023897     18.38101 
   14900    190.98563    9736.8283    9927.8139    697.48221    986.19795     13565905   0.35669596    18.765416 
   15000     202.8394    9755.0438    9957.8831    698.78705    991.81593     13700197   0.35319954    19.161746 
   15100     188.3776     9794.397    9982.7746    701.60606    969.05598     13835993     0.349733    19.533796 
   15200    197.56689    9786.1243    9983.6912    701.01346    968.25124     13972622   0.34631319    19.908143 
   15300     209.7082    9738.0456    9947.7538    697.56941    968.78599     14110430   0.34293097    21.387001 
   15400    186.97949    9732.6033    9919.5828    697.17957    934.36343     14249338   0.33958794     21.75938 
   15500    182.56495    9790.1498    9972.7148    701.30182    924.36284     14389660   0.33627642    22.136089 
   15600    195.26387    9792.0321     9987.296    701.43665    929.00221     14531871   0.33298558    22.523813 
   15700    210.21093    9765.4508    9975.6617    699.53254    933.79372     14674970   0.32973856    22.909352 
   15800    194.48149    9754.8074    9949.2889    698.77012    907.52494     14818799   0.32653815    23.298547 
   15900    188.61612    9785.8245    9974.4406    700.99198    895.52362     14964130   0.32336684    23.690813 
   16000    197.33612    9804.3566    10001.693     702.3195    895.75269     15111127   0.32022122     24.09199 
   16100    171.32857    9766.8196    9938.1482     699.6306    858.30378     15259173   0.31711439     24.45959 
   16200     179.5239    9732.9869    9912.5108    697.20704    856.24021     15408514   0.31404088    24.829872 
   16300    180.50182    9773.4353    9953.9372     700.1045    851.60375     15559043   0.31100264    25.333324 
   16400    172.58789    9797.8699    9970.4578    701.85484    837.40656     15711206   0.30799057     25.72092 
   16500    159.08007    9773.6801    9932.7601    700.12203    813.85749     15864174   0.30502082    26.112178 
   16600    180.86334    9756.0432    9936.9065    698.85864    826.87639     16018511   0.30208198    26.508658 
   16700    173.54192    9771.6384    9945.1803    699.97578    812.86486     16174166   0.29917484    26.901728 
   16800    183.20527    9807.3285    9990.5338    702.53239    817.23109     16331370     0.296295    27.293251 
   16900    149.25925    9781.4577     9930.717    700.67917     774.2764     16490209   0.29344099     27.68189 
   17000    157.90991    9735.4366    9893.3465    697.38252    772.41228     16649980   0.29062517    28.088855 
   17100    163.36754    9746.2789    9909.6464    698.15919    770.96303     16810868   0.28784376    28.459629 
   17200    157.65227    9785.4728    9943.1251    700.96679     760.0721     16973490   0.28508593    28.833015 
   17300    144.14526    9774.2754    9918.4207    700.16468    740.22348     17137503   0.28235756    29.249251 
   17400     132.0458    9761.5057    9893.5515    699.24994    721.88653     17303133   0.27965475    29.674141 
   17500    141.03009    9776.7143    9917.7444    700.33939    723.56773     17470214   0.27698021    30.408953 
   17600    146.10264    9805.1911    9951.2937    702.37928    723.17712     17639487   0.27432223    30.840022 
   17700    179.41274    9768.4326    9947.8453    699.74614    742.87446     17809612   0.27170179    31.287917 
   17800    153.23294    9725.7346    9878.9676    696.68754    710.41258     17980758   0.26911565    31.736712 
   17900    160.01403    9755.5197    9915.5338    698.82115    711.16769     18153584   0.26655361    32.189277 
   18000    135.23371     9780.112    9915.3457    700.58278    684.61992     18328260   0.26401325    32.648362 
   18100    144.70133    9769.0465    9913.7478    699.79011    685.77181     18504648   0.26149665      33.0616 
   18200    144.40556    9764.2932    9908.6988    699.44962    678.56817     18682157   0.25901202    33.493006 
   18300    148.13657    9788.9099    9937.0465      701.213    676.29928     18861339   0.25655143    33.917601 
   18400    146.56085    9793.6073    9940.1682    701.54949    669.45144     19042281   0.25411364    34.333812 
   18500    130.32992     9760.437     9890.767    699.17339    648.35932     19224995   0.25169855    34.751519 
   18600    138.89386    9733.1351     9872.029    697.21766    647.16628     19408269   0.24932174    35.173039 
   18700    131.00126    9771.9392    9902.9404    699.99733    637.06959     19593732    0.2469618    35.589126 
   18800    127.47311     9774.922    9902.3951      700.211    628.10506     19780435   0.24463079    36.002142 
   18900    145.97951    9762.2937    9908.2732    699.30639    636.20171     19968748   0.24232383    36.413727 
   19000    111.11332    9773.9954    9885.1087    700.14462    604.19825     20158741   0.24003996    36.834835 
   19100    126.51456    9791.6043    9918.1189    701.40601     610.4674     20350416   0.23777909    37.223116 
   19200    136.82899    9776.6848    9913.5138    700.33727    612.28114     20544657   0.23553099    37.611676 
   19300     131.7338     9747.796    9879.5298    698.26787    600.39287     20739696   0.23331602    38.003023 
   19400    128.57449    9763.8513    9892.4258    699.41797    594.06364     20936627   0.23112144    38.398003 
   19500    122.52558    9780.6021    9903.1277    700.61788      584.908     21135606   0.22894557     38.79437 
   19600    132.73639    9769.4747    9902.2111    699.82079    586.09066     21336425   0.22679073    39.193124 
   19700    128.88074    9769.0474    9897.9281    699.79018    578.08278     21538775   0.22466011    39.598639 
   19800    127.43716    9793.5433    9920.9804     701.5449    572.54948     21743363   0.22254623    40.009473 
   19900    117.10055    9782.7041    9899.8047    700.76846    559.05585     21949672   0.22045448    40.424604 
   20000    134.92663    9755.0915    9890.0181    698.79047    564.99242     22157057   0.21839107    40.850335 
Loop time of 40.8504 on 2 procs for 10000 steps with 108000 atoms

Performance: 21.150 ns/day, 1.135 hours/ns, 244.796 timesteps/s
97.4% CPU use with 2 MPI tasks x 1 OpenMP threads

MPI task timing breakdown:
Section |  min time  |  avg time  |  max time  |%varavg| %total
---------------------------------------------------------------
Pair    | 4.4701     | 4.5149     | 4.5597     |   2.1 | 11.05
Neigh   | 10.512     | 10.636     | 10.761     |   3.8 | 26.04
Comm    | 1.8091     | 2.0922     | 2.3754     |  19.6 |  5.12
Output  | 9.71       | 9.7102     | 9.7104     |   0.0 | 23.77
Modify  | 12.813     | 12.941     | 13.07      |   3.6 | 31.68
Other   |            | 0.9554     |            |       |  2.34

Nlocal:    54000 ave 54102 max 53898 min
Histogram: 1 0 0 0 0 0 0 0 0 1
Nghost:    4675.5 ave 4766 max 4585 min
Histogram: 1 0 0 0 0 0 0 0 0 1
Neighs:    6756 ave 6785 max 6727 min
Histogram: 1 0 0 0 0 0 0 0 0 1

Total # of neighbors = 13512
Ave neighs/atom = 0.125111
Neighbor list builds = 1000
Dangerous builds = 1000

unfix 				inc_temp



# ------------------------- BINDING FORCE FIELDS / POTENTIAL -------------------------

pair_style		lj/cut 10
pair_coeff		* * 3.920 2.62 10

# pair_style		eam/alloy
# pair_coeff		* * Al_Zhou04.eam.alloy Al

print "******************** Force field altered for binding ********************"
******************** Force field altered for binding ********************



# ------------------------- STEP 3: NVE INTERACTION  -------------------------

print "******************** NVE interaction ********************"
******************** NVE interaction ********************

neighbor			0.5 bin
neigh_modify		every 10 delay 0 check yes

fix					nve all nve
fix					temp_rescale all temp/rescale 100 700 700 0.1 0.9

timestep 			0.001

run 				10000
Per MPI rank memory allocation (min/avg/max) = 36.94 | 36.94 | 36.94 Mbytes
Step PotEng KinEng TotEng Temp Press Volume Density CPU 
   20000   -197764.46    9755.0915   -188009.37    698.79047   -3266.4391     22157057   0.21839107            0 
   20100   -370314.43    26969.514   -343344.92    1931.9182   -9844.7532     22157057   0.21839107      1.20591 
   20200   -543993.61    28814.149   -515179.46    2064.0558   -10930.859     22157057   0.21839107    2.4271069 
   20300   -726401.26    29842.494   -696558.77    2137.7196    -11807.51     22157057   0.21839107    3.6470129 
   20400   -907618.69    29797.175   -877821.51    2134.4733   -10907.766     22157057   0.21839107    4.8783238 
   20500     -1075854    28476.504   -1047377.5    2039.8691   -10424.442     22157057   0.21839107    6.1360528 
   20600   -1225283.8    26456.052   -1198827.8    1895.1372   -8636.5657     22157057   0.21839107    7.4363308 
   20700   -1352385.7    24026.878   -1328358.8    1721.1272   -7171.1126     22157057   0.21839107     8.785558 
   20800   -1457832.3    21626.812   -1436205.5    1549.2023    -5865.735     22157057   0.21839107    10.188722 
   20900     -1544221    19492.393   -1524728.6    1396.3066    -4053.437     22157057   0.21839107    11.641999 
   21000   -1612530.5    17487.137   -1595043.3    1252.6632   -3634.2372     22157057   0.21839107    13.140094 
   21100   -1666418.5    15856.619   -1650561.9    1135.8637   -3259.5645     22157057   0.21839107    14.546793 
   21200   -1710032.6    14676.663   -1695355.9    1051.3394   -3048.0753     22157057   0.21839107    15.992705 
   21300   -1745480.1    13748.421   -1731731.7    984.84627   -2414.4468     22157057   0.21839107    17.476375 
   21400   -1775109.1    13081.313   -1762027.8    937.05907   -2444.4208     22157057   0.21839107    18.996927 
   21500   -1800367.1    12581.644   -1787785.5    901.26605   -2071.7152     22157057   0.21839107    20.551406 
   21600   -1822145.7    12186.801   -1809958.9    872.98213   -1343.6657     22157057   0.21839107    22.137138 
   21700   -1841325.7    11892.102   -1829433.6    851.87184   -1563.4855     22157057   0.21839107    23.751297 
   21800   -1858729.3    11687.561   -1847041.8    837.21984   -1366.4822     22157057   0.21839107     25.39308 
   21900   -1874378.3    11494.303     -1862884    823.37614   -1162.4743     22157057   0.21839107    27.061558 
   22000   -1888526.2    11327.185     -1877199    811.40492   -1358.1008     22157057   0.21839107      28.7559 
   22100     -1902019     11245.07     -1890774    805.52268    -1014.566     22157057   0.21839107    30.436925 
   22200   -1914237.8    11111.611   -1903126.2    795.96261   -1143.2777     22157057   0.21839107    32.145625 
   22300   -1925702.5    11024.979   -1914677.5    789.75686   -1116.0953     22157057   0.21839107    33.880249 
   22400   -1936697.8    10969.162   -1925728.6    785.75848   -1123.1485     22157057   0.21839107    35.638888 
   22500   -1947063.2    10901.258   -1936161.9    780.89429   -928.77079     22157057   0.21839107    37.421772 
   22600   -1956536.2    10807.111   -1945729.1    774.15023   -838.13125     22157057   0.21839107    39.228464 
   22700   -1965626.5    10759.627   -1954866.9    770.74878   -923.75537     22157057   0.21839107    41.059335 
   22800   -1974134.3    10698.394   -1963435.9    766.36245    -691.9456     22157057   0.21839107    42.888971 
   22900   -1982499.8    10678.273   -1971821.5    764.92113   -828.19926     22157057   0.21839107    44.715648 
   23000   -1990739.8    10663.497   -1980076.3    763.86263   -868.59081     22157057   0.21839107    46.550915 
   23100   -1998570.4    10622.603   -1987947.8    760.93327   -760.96342     22157057   0.21839107    48.444438 
   23200   -2005937.2     10574.49   -1995362.7    757.48676   -839.73774     22157057   0.21839107    50.585854 
   23300   -2012722.9    10511.461   -2002211.4    752.97181   -767.71986     22157057   0.21839107    52.772716 
   23400   -2019190.4    10474.613   -2008715.8    750.33226   -640.13922     22157057   0.21839107    54.866724 
   23500   -2025554.9    10461.163   -2015093.8    749.36877   -682.83531     22157057   0.21839107     56.86231 
   23600   -2031580.1    10426.097     -2021154    746.85687   -589.40518     22157057   0.21839107    58.835416 
   23700   -2037515.7    10414.292   -2027101.4    746.01127   -703.25047     22157057   0.21839107    60.820803 
   23800   -2043054.2    10372.848   -2032681.3     743.0425   -509.23681     22157057   0.21839107    62.821483 
   23900   -2048721.6    10381.377   -2038340.2    743.65342   -443.36629     22157057   0.21839107    64.840325 
   24000   -2054140.4     10358.59   -2043781.8    742.02111   -476.39636     22157057   0.21839107    66.876295 
   24100     -2059350    10336.127   -2049013.8    740.41203   -443.58756     22157057   0.21839107    68.905254 
   24200   -2064126.2    10291.918   -2053834.3    737.24521   -470.80869     22157057   0.21839107    70.952361 
   24300   -2068674.9    10265.274   -2058409.6    735.33656   -348.31779     22157057   0.21839107    72.985768 
   24400   -2073313.3    10271.618   -2063041.7    735.79099   -467.17426     22157057   0.21839107    75.015406 
   24500   -2077868.7    10263.924   -2067604.8    735.23987   -487.47964     22157057   0.21839107    77.052277 
   24600   -2081946.2    10216.184     -2071730    731.82011   -536.32931     22157057   0.21839107    79.095095 
   24700   -2086161.8    10225.655   -2075936.2    732.49854   -272.30498     22157057   0.21839107    81.162191 
   24800   -2089969.4    10186.737   -2079782.7    729.71071    -418.9722     22157057   0.21839107    83.209981 
   24900   -2093576.7    10162.809   -2083413.9    727.99665   -329.07125     22157057   0.21839107    85.245897 
   25000   -2097286.9    10170.458   -2087116.4    728.54458    -374.8353     22157057   0.21839107    87.274836 
   25100   -2101100.9    10180.665   -2090920.2    729.27574   -152.95394     22157057   0.21839107    89.327377 
   25200   -2104636.6    10155.185   -2094481.4    727.45055   -313.93119     22157057   0.21839107    91.406621 
   25300   -2108363.5    10171.408   -2098192.1    728.61267   -179.22722     22157057   0.21839107    93.463727 
   25400   -2111814.4    10146.687   -2101667.7    726.84177   -446.81211     22157057   0.21839107    95.593059 
   25500   -2115029.7    10121.516   -2104908.2    725.03868    -199.5415     22157057   0.21839107    97.727173 
   25600   -2118049.2    10099.869   -2107949.3    723.48803   -349.28771     22157057   0.21839107    99.870361 
   25700   -2120947.2    10085.712   -2110861.5    722.47395   -176.79622     22157057   0.21839107     102.0082 
   25800   -2123534.7    10054.273   -2113480.4    720.22187   -347.75214     22157057   0.21839107    104.12279 
   25900   -2126095.2    10048.444   -2116046.8    719.80432   -367.43991     22157057   0.21839107    106.30816 
   26000   -2128698.3     10051.81   -2118646.5     720.0454   -157.31447     22157057   0.21839107    108.58471 
   26100   -2131172.1    10040.517   -2121131.6    719.23644   -326.56888     22157057   0.21839107    111.00702 
   26200   -2133671.7    10040.875   -2123630.8    719.26209   -330.66989     22157057   0.21839107    113.44572 
   26300   -2135974.9    10020.975   -2125953.9    717.83662   -225.08579     22157057   0.21839107    115.74235 
   26400   -2138414.4    10033.166   -2128381.2    718.70991    -290.3096     22157057   0.21839107    117.99384 
   26500   -2140901.2     10038.42   -2130862.8    719.08627    -318.1532     22157057   0.21839107    120.26146 
   26600   -2143163.4    10017.382     -2133146     717.5792   -205.72584     22157057   0.21839107    122.51558 
   26700   -2145387.1    10011.916   -2135375.2    717.18771   -134.85788     22157057   0.21839107    124.77675 
   26800   -2147386.2    9989.1187   -2137397.1    715.55464   -94.232688     22157057   0.21839107      127.044 
   26900   -2149453.2    9994.4842   -2139458.7    715.93899   -211.45353     22157057   0.21839107    129.31627 
   27000   -2151602.9    10002.436   -2141600.5    716.50861   -174.38539     22157057   0.21839107    131.60278 
   27100   -2153289.9    9957.9522     -2143332    713.32207   -226.86056     22157057   0.21839107    133.87623 
   27200   -2155114.4    9967.0167   -2145147.4    713.97139   -134.30437     22157057   0.21839107    136.15536 
   27300   -2157280.8    10001.226   -2147279.6     716.4219      -291.81     22157057   0.21839107    138.44068 
   27400   -2159253.6    9984.9752   -2149268.6    715.25782   -234.58707     22157057   0.21839107    140.73355 
   27500   -2161311.8    9992.3463   -2151319.4    715.78584   -212.42126     22157057   0.21839107    143.03295 
   27600   -2163278.8    9983.4254   -2153295.4    715.14681   -105.51659     22157057   0.21839107    145.33864 
   27700   -2165191.1    9978.5835   -2155212.5    714.79996   -277.95006     22157057   0.21839107    147.65041 
   27800   -2167190.1      9985.32   -2157204.8    715.28252   -169.38111     22157057   0.21839107    149.94346 
   27900   -2169069.6    9974.6942   -2159094.9    714.52136   -62.287662     22157057   0.21839107     152.2035 
   28000   -2170937.1    9973.4337   -2160963.7    714.43107   -78.365782     22157057   0.21839107     154.4483 
   28100   -2172664.7    9959.2346   -2162705.5    713.41394   -115.31678     22157057   0.21839107    156.70824 
   28200   -2174286.9    9947.6212   -2164339.3    712.58203   -208.37482     22157057   0.21839107    158.95748 
   28300   -2175774.4    9933.1515   -2165841.3    711.54552   -215.16825     22157057   0.21839107    161.21479 
   28400   -2177373.4    9942.3557     -2167431    712.20484   -91.828567     22157057   0.21839107    163.46236 
   28500   -2178896.6    9936.5104   -2168960.1    711.78612   -245.56092     22157057   0.21839107     165.7561 
   28600   -2180369.3    9930.7115   -2170438.6    711.37073   -126.21001     22157057   0.21839107    168.05504 
   28700   -2181775.4    9924.1103   -2171851.3    710.89786   -243.15035     22157057   0.21839107    170.73702 
   28800   -2183357.4    9940.0782   -2173417.3     712.0417   -167.03661     22157057   0.21839107    173.42302 
   28900   -2184831.9    9930.7434   -2174901.1    711.37301   -117.09547     22157057   0.21839107    175.88123 
   29000   -2186242.1    9923.7575   -2176318.4    710.87259   -67.805198     22157057   0.21839107    178.25679 
   29100     -2187697    9927.7555   -2177769.2    711.15898   -122.31983     22157057   0.21839107    180.63216 
   29200     -2189020     9915.332   -2179104.6    710.26904   -119.33062     22157057   0.21839107    183.00857 
   29300   -2190426.7    9922.5816   -2180504.1    710.78835   -22.047827     22157057   0.21839107    185.39091 
   29400   -2191645.5    9904.7097   -2181740.8    709.50813   -45.710888     22157057   0.21839107    187.77432 
   29500   -2192771.9    9894.3028   -2182877.6    708.76265   -192.82338     22157057   0.21839107    190.16484 
   29600   -2193936.3    9897.2186   -2184039.1    708.97152   -159.90539     22157057   0.21839107    192.56123 
   29700   -2195061.9     9892.732   -2185169.1    708.65013    159.68042     22157057   0.21839107    194.94668 
   29800   -2196068.1    9881.1294     -2186187      707.819   -134.73238     22157057   0.21839107    197.30528 
   29900   -2197114.5    9884.4812     -2187230     708.0591   -153.58426     22157057   0.21839107    199.64943 
   30000   -2198241.5    9891.8911   -2188349.6    708.58989   -193.56816     22157057   0.21839107    202.06061 
Loop time of 202.061 on 2 procs for 10000 steps with 108000 atoms

Performance: 4.276 ns/day, 5.613 hours/ns, 49.490 timesteps/s
99.2% CPU use with 2 MPI tasks x 1 OpenMP threads

MPI task timing breakdown:
Section |  min time  |  avg time  |  max time  |%varavg| %total
---------------------------------------------------------------
Pair    | 150.77     | 152.37     | 153.97     |  13.0 | 75.41
Neigh   | 28.877     | 29.319     | 29.761     |   8.2 | 14.51
Comm    | 4.6659     | 6.7919     | 8.9179     |  81.6 |  3.36
Output  | 8.2811     | 8.2813     | 8.2815     |   0.0 |  4.10
Modify  | 3.8989     | 4.0045     | 4.1101     |   5.3 |  1.98
Other   |            | 1.297      |            |       |  0.64

Nlocal:    54000 ave 54032 max 53968 min
Histogram: 1 0 0 0 0 0 0 0 0 1
Nghost:    18074.5 ave 18289 max 17860 min
Histogram: 1 0 0 0 0 0 0 0 0 1
Neighs:    2.19153e+06 ave 2.22654e+06 max 2.15652e+06 min
Histogram: 1 0 0 0 0 0 0 0 0 1

Total # of neighbors = 4383060
Ave neighs/atom = 40.5839
Neighbor list builds = 1000
Dangerous builds = 1000

unfix 				temp_rescale
unfix 				nve



# ------------------------- STEP 4a: COOLING 700 - 600  -------------------------

print "******************** Decreasing temperature from 700 K to 600 K ********************"
******************** Decreasing temperature from 700 K to 600 K ********************

neighbor			0.5 bin
neigh_modify		every 10 delay 0 check yes

fix					2 all npt temp 600.0 600.0 0.1 iso 1 1 1 drag 0.2
fix					temp_rescale all temp/rescale 100 600 600 0.1 0.9

timestep 			0.001

run 				9000
Per MPI rank memory allocation (min/avg/max) = 42.66 | 42.85 | 43.04 Mbytes
Step PotEng KinEng TotEng Temp Press Volume Density CPU 
   30000   -2198241.5    9891.8911   -2188349.6    708.58989   -193.56816     22157057   0.21839107            0 
   30100   -2199569.4    8600.3328     -2190969    616.07117    -10.56078     22140448    0.2185549    2.5081089 
   30200   -2201339.8    8514.5668   -2192825.2    609.92746   -103.86285     22121235   0.21874472    4.9891679 
   30300   -2202564.4    8464.0982   -2194100.3    606.31222   -151.74542     22093908   0.21901527    7.4444129 
   30400   -2203488.8    8437.2285   -2195051.6    604.38745   -105.81136     22048497   0.21946637    9.8683319 
   30500   -2204390.3    8437.3288     -2195953    604.39463   -84.175122     21996884   0.21998131    12.309723 
   30600   -2205292.8    8438.4921   -2196854.3    604.47797   -39.129466     21939405   0.22055764    14.771028 
   30700   -2206215.7    8440.5503   -2197775.2     604.6254   -93.229745     21881035   0.22114601    17.182444 
   30800   -2207108.4    8439.0262   -2198669.3    604.51622   -3.5306897     21831602   0.22164674    19.596583 
   30900   -2208075.8    8446.6277   -2199629.2    605.06075   -1.6482209     21783734    0.2221338    22.028003 
   31000   -2208983.3    8441.3784     -2200542    604.68472   -3.5714176     21742538   0.22255467    24.464046 
   31100   -2209908.9    8441.2485   -2201467.7    604.67542   -27.750998     21692531   0.22306772    27.139454 
   31200   -2211088.7    8463.4428   -2202625.3    606.26527   -144.79968     21646062   0.22354659    30.075908 
   31300   -2212089.6    8448.2266   -2203641.4    605.17528   -9.6566467     21601744   0.22400522    32.832721 
   31400   -2213137.5    8452.2697   -2204685.2     605.4649   -137.07883     21550084    0.2245422    35.405541 
   31500   -2214378.1    8467.9767   -2205910.2    606.59005   -33.060178     21496950   0.22509721    37.963107 
   31600   -2215737.6    8478.5206   -2207259.1    607.34535    54.769401     21450375   0.22558596    40.521308 
   31700   -2216943.4    8465.4401     -2208478    606.40834   -150.26975     21417721    0.2259299    43.086211 
   31800   -2218004.5    8452.2688   -2209552.2    605.46484    -31.21836     21389708   0.22622578    45.654221 
   31900   -2219099.4    8454.9586   -2210644.5    605.65752   -4.7691959     21350036   0.22664615    48.228657 
   32000   -2220142.5    8450.2489   -2211692.3    605.32015   -11.555557     21309897   0.22707305    50.815352 
   32100   -2221330.7    8464.3193   -2212866.4    606.32806   -160.83735     21270202   0.22749682    53.387495 
   32200     -2222458     8458.252   -2213999.8    605.89344   -95.362505     21239925   0.22782111    55.979426 
   32300   -2223568.9    8456.1798   -2215112.8      605.745   -8.3028282     21219024   0.22804552    58.610213 
   32400   -2224451.7    8437.1897   -2216014.5    604.38467    8.8130728     21203044    0.2282174    61.196632 
   32500   -2225206.3    8427.2395     -2216779     603.6719    3.1542719     21196698   0.22828572    63.786696 
   32600   -2225904.2    8421.7772   -2217482.4    603.28062   -40.814183     21176127   0.22850748    66.377143 
   32700   -2226639.5    8426.8983   -2218212.6    603.64746   -58.521773     21143734   0.22885756    68.963972 
   32800   -2227504.7    8438.7993   -2219065.9    604.49997    -12.55543     21096533    0.2293696    71.498856 
   32900   -2228341.9    8435.9926   -2219905.9    604.29892   -46.342679     21052381   0.22985064     74.06263 
   33000   -2229162.7    8433.6156   -2220729.1    604.12865    28.745515     21016893   0.23023876    76.616076 
   33100   -2230024.7    8437.1158   -2221587.6    604.37938   -69.389659     20990236   0.23053116    79.186988 
   33200   -2230872.7    8436.9144   -2222435.8    604.36495   -73.023381     20957733   0.23088869    81.777864 
   33300     -2231650    8431.2797   -2223218.7    603.96132    122.53278     20925731   0.23124178    84.340365 
   33400   -2232320.6    8422.1645   -2223898.5    603.30837   -67.279455     20889588   0.23164187    87.097247 
   33500   -2232948.7     8417.989   -2224530.7    603.00926   -10.154295     20839075   0.23220337    90.022259 
   33600   -2233877.9    8443.8783     -2225434     604.8638   -17.764544     20778808   0.23287686    92.759253 
   33700   -2234833.8    8446.8316     -2226387    605.07535   -57.492358     20724507   0.23348703    95.415597 
   33800   -2235729.4    8442.0112   -2227287.4    604.73005   -15.321373     20693328   0.23383882    98.002119 
   33900   -2236515.3    8430.4004   -2228084.9    603.89833   -48.046541     20666564   0.23414165     100.5162 
   34000   -2237313.2    8431.4031   -2228881.8    603.97016     -49.1978     20646407   0.23437024    103.04333 
   34100   -2238141.2    8434.6346   -2229706.6    604.20164    5.0967104     20618217   0.23469068    105.59378 
   34200   -2238966.7    8433.6146   -2230533.1    604.12857   -138.94493     20588979   0.23502397    108.10479 
   34300   -2239732.3     8429.323     -2231303    603.82115   -21.279903     20563166   0.23531899    110.73504 
   34400   -2240481.4     8427.832   -2232053.6    603.71435    124.74813     20528539   0.23571592    113.34872 
   34500   -2241168.6    8422.8837   -2232745.7    603.35988   -48.217198     20496691   0.23608218    115.87265 
   34600   -2241997.1    8434.3763   -2233562.7    604.18314   -23.036782     20457477   0.23653471    118.43645 
   34700   -2242670.1    8422.2886   -2234247.8    603.31725   -31.082777     20429210   0.23686199    121.06518 
   34800   -2243493.3    8434.3582   -2235058.9    604.18184    60.943259     20389994   0.23731755    123.59396 
   34900   -2244334.2    8435.7055   -2235898.5    604.27835    -48.35688     20349360   0.23779143    126.12344 
   35000   -2245219.5    8440.0056   -2236779.5    604.58638   -95.600926     20313078   0.23821616    128.70234 
   35100   -2246029.2    8432.2975   -2237596.9    604.03422   -38.581285     20283427   0.23856439    131.24664 
   35200   -2246855.9    8433.4731   -2238422.5    604.11844   -77.106811     20255470   0.23889367    133.82579 
   35300     -2247611    8428.0223     -2239183    603.72798   -77.214664     20229599   0.23919918    136.38045 
   35400   -2248424.2    8434.0648   -2239990.1    604.16083   -247.48373     20207351   0.23946253    138.97671 
   35500   -2249201.8    8431.1023   -2240770.7    603.94861    46.457746     20169713   0.23990939    141.54175 
   35600   -2250008.3    8432.2675     -2241576    604.03208   -4.7131234     20143417   0.24022258    144.11233 
   35700   -2250752.1    8428.1233     -2242324    603.73521  -0.75874583     20133056   0.24034619    146.87173 
   35800   -2251314.6    8413.8564   -2242900.7    602.71323   -151.22939     20120051   0.24050155    149.89723 
   35900   -2251772.9    8403.2282   -2243369.6    601.95189   -22.575615     20089168   0.24087127    152.86333 
   36000   -2252296.3    8410.3132     -2243886    602.45941    89.814054     20056776   0.24126028    155.61126 
   36100     -2252810    8409.3979   -2244400.6    602.39385    70.979162     20011892    0.2418014    158.30943 
   36200   -2253375.9    8413.6719   -2244962.2    602.70001   -69.947458     19962561   0.24239892    161.00891 
   36300   -2254058.3    8424.1193   -2245634.2    603.44839   -90.019223     19917444   0.24294801    163.71255 
   36400   -2254800.6    8428.9557   -2246371.7    603.79484   -45.104968     19874086   0.24347803      166.419 
   36500   -2255549.1    8429.2513   -2247119.9    603.81602    4.1927531     19843724   0.24385057    169.13074 
   36600   -2256254.7    8424.7946   -2247829.9    603.49677    19.691882     19816293   0.24418812    171.84426 
   36700   -2256945.4    8423.6393   -2248521.8    603.41401   -95.827334     19792124   0.24448631    174.56395 
   36800   -2257652.3    8423.7432   -2249228.5    603.42145    92.232476     19760612   0.24487619    177.23555 
   36900   -2258278.4    8417.5633   -2249860.8    602.97877   -92.498226     19744043   0.24508169    179.88553 
   37000   -2259111.1     8437.299   -2250673.8     604.3925   -97.969466     19712574   0.24547294     182.5393 
   37100   -2259728.6    8418.1372   -2251310.4    603.01988    112.26103     19687065   0.24579101    185.22918 
   37200   -2260377.1    8421.1328     -2251956    603.23446   -119.25454     19663330   0.24608769    187.87392 
   37300   -2260950.7    8413.6738     -2252537    602.70014   -126.18447     19627255      0.24654    190.52234 
   37400   -2261655.8     8424.318   -2253231.5    603.46263   -147.84948     19590819   0.24699852    193.10351 
   37500   -2262263.9    8416.1063   -2253847.8    602.87439   -95.974637     19551449   0.24749589    195.70047 
   37600   -2263019.1    8428.7996   -2254590.3    603.78366   -33.924763     19502581   0.24811606    198.28776 
   37700   -2263728.6     8426.682   -2255301.9    603.63197    27.229105     19468255   0.24855352    200.88664 
   37800   -2264468.2    8428.6195   -2256039.6    603.77076   -12.866921     19434963    0.2489793    203.51045 
   37900   -2265138.7    8421.4547   -2256717.2    603.25752    50.667823     19402254   0.24939904    206.22736 
   38000   -2265849.7    8425.6552     -2257424    603.55842   -55.117192     19371735   0.24979195    209.25234 
   38100   -2266634.8     8432.933   -2258201.8    604.07975   -78.523251     19330553    0.2503241    212.23552 
   38200     -2267453    8435.1057   -2259017.9    604.23539    -28.92885     19281366   0.25096269    215.04849 
   38300   -2268179.1    8426.0313   -2259753.1    603.58536   -74.219581     19245418   0.25143145    217.80054 
   38400   -2268976.1    8431.5764   -2260544.5    603.98257   -81.094258     19209979    0.2518953    220.56739 
   38500   -2269662.9    8421.6828   -2261241.2    603.27386    43.946008     19178718   0.25230588    223.32612 
   38600   -2270517.1    8436.4747   -2262080.6    604.33345    -9.794776     19144789   0.25275303    226.08952 
   38700   -2271301.6    8430.9273   -2262870.7    603.93608   -62.230331     19109628   0.25321808    228.85741 
   38800   -2272114.7    8433.8965   -2263680.8    604.14877     -159.392     19074468   0.25368484    231.62792 
   38900   -2272887.8    8430.4136   -2264457.3    603.89928   -67.171095     19034858   0.25421275    234.41133 
   39000   -2273627.5    8427.5377     -2265200    603.69327   -131.11599     18997797   0.25470866    237.16074 
Loop time of 237.161 on 2 procs for 9000 steps with 108000 atoms

Performance: 3.279 ns/day, 7.320 hours/ns, 37.949 timesteps/s
99.3% CPU use with 2 MPI tasks x 1 OpenMP threads

MPI task timing breakdown:
Section |  min time  |  avg time  |  max time  |%varavg| %total
---------------------------------------------------------------
Pair    | 180.74     | 180.92     | 181.09     |   1.3 | 76.29
Neigh   | 29.051     | 29.17      | 29.288     |   2.2 | 12.30
Comm    | 6.3444     | 6.7153     | 7.0863     |  14.3 |  2.83
Output  | 7.4241     | 7.4243     | 7.4245     |   0.0 |  3.13
Modify  | 11.634     | 11.744     | 11.853     |   3.2 |  4.95
Other   |            | 1.189      |            |       |  0.50

Nlocal:    54000 ave 54063 max 53937 min
Histogram: 1 0 0 0 0 0 0 0 0 1
Nghost:    18966.5 ave 19183 max 18750 min
Histogram: 1 0 0 0 0 0 0 0 0 1
Neighs:    2.43556e+06 ave 2.45507e+06 max 2.41606e+06 min
Histogram: 1 0 0 0 0 0 0 0 0 1

Total # of neighbors = 4871129
Ave neighs/atom = 45.103
Neighbor list builds = 900
Dangerous builds = 900

unfix 				temp_rescale
unfix 				2



# ------------------------- STEP 4b: COOLING 600 - 400 -------------------------

print "******************** Decreasing temperature from 600 K to 400 K ********************"
******************** Decreasing temperature from 600 K to 400 K ********************

neighbor			0.5 bin
neigh_modify		every 10 delay 0 check yes

fix					3 all npt temp 400.0 400.0 0.1 iso 1 1 1 drag 0.2
fix					temp_rescale all temp/rescale 100 400 400 0.1 0.9

timestep 			0.001

run 				9000
Per MPI rank memory allocation (min/avg/max) = 43.81 | 44 | 44.19 Mbytes
Step PotEng KinEng TotEng Temp Press Volume Density CPU 
   39000   -2273627.5    8427.5377     -2265200    603.69327   -131.11599     18997797   0.25470866            0 
   39100   -2274682.8    5894.1896   -2268788.6     422.2209   -137.86126     18964748   0.25515253     2.718168 
   39200     -2276915    5765.7019   -2271149.3    413.01689   -73.838952     18916242    0.2558068     5.425993 
   39300   -2278558.3    5711.7647   -2272846.6    409.15319   -88.697952     18871332   0.25641557    8.1368699 
   39400   -2279701.6    5667.6685   -2274033.9    405.99442   -35.722431     18821125   0.25709958     10.84773 
   39500   -2280640.1     5650.439   -2274989.7    404.76021   -108.42826     18770928   0.25778712     13.56418 
   39600   -2281455.2    5640.6384   -2275814.6    404.05816   -26.527068     18729046   0.25836358    16.275237 
   39700   -2282272.1    5642.0835     -2276630    404.16168   -88.038666     18692181   0.25887313    18.989795 
   39800   -2283144.4     5648.949   -2277495.4    404.65348   -45.046633     18657756   0.25935078    21.708932 
   39900   -2284043.9    5652.6955   -2278391.2    404.92186   -56.473162     18613566   0.25996649    24.431165 
   40000   -2284795.1    5638.1989   -2279156.9    403.88342   -44.209027     18573451   0.26052797    27.149602 
   40100   -2285564.2    5640.7695   -2279923.4    404.06756    -23.44641     18541751   0.26097338    29.998784 
   40200   -2286411.8    5647.5573   -2280764.3    404.55379   -84.388215     18509849   0.26142316    33.225037 
   40300   -2287330.3    5653.6032   -2281676.7    404.98688   -79.130115     18462951   0.26208722     36.25968 
   40400   -2288182.3    5647.3558   -2282534.9    404.53935   -210.66383     18419308    0.2627082    39.079151 
   40500   -2288987.2     5642.661   -2283344.6    404.20305   -137.84024     18387959   0.26315609    41.893242 
   40600   -2289866.2    5650.5622   -2284215.6    404.76904  -0.13041783     18344492   0.26377963    44.705949 
   40700   -2290665.9    5642.6972   -2285023.2    404.20564     20.56838     18305178   0.26434615    47.500703 
   40800   -2291294.4    5626.5305   -2285667.9    403.04757     -32.6795     18267959   0.26488473    50.252467 
   40900   -2292049.1    5637.6865   -2286411.4    403.84671   -64.744673     18227170    0.2654775    53.022545 
   41000   -2292814.9     5641.521   -2287173.4    404.12139   -120.77393     18203484   0.26582293    55.783233 
   41100   -2293565.4    5639.3726   -2287926.1    403.96749   -59.040066     18159399   0.26646826    58.535172 
   41200   -2294312.8    5639.4959   -2288673.3    403.97632   -167.66963     18108357   0.26721934    61.323811 
   41300   -2295190.9    5650.9749   -2289539.9    404.79861   -117.62555     18059731   0.26793885     64.16884 
   41400     -2296073    5651.3335   -2290421.7    404.82429   -31.060916     18019320   0.26853973    66.959547 
   41500   -2296937.4    5649.3114     -2291288    404.67944   -134.57027     17978463      0.26915    69.737235 
   41600   -2297817.7    5650.3465   -2292167.3    404.75359   -108.81703     17931527   0.26985452    72.518303 
   41700   -2298617.6    5642.5155   -2292975.1    404.19263   -78.666348     17892515   0.27044289    75.246849 
   41800     -2299480    5648.4313   -2293831.5    404.61639   -179.04933     17863512   0.27088198    78.004744 
   41900   -2300390.3    5653.3029     -2294737    404.96536   -89.482608     17831783   0.27136397    80.740003 
   42000   -2301150.5    5639.8123   -2295510.7    403.99899   -17.206301     17798381   0.27187324    83.523473 
   42100   -2302005.6    5647.4079   -2296358.2    404.54309   -19.160646     17760914   0.27244675    86.260843 
   42200   -2302734.6    5636.5134   -2297098.1    403.76268   -7.2611244     17729240    0.2729335    89.181021 
   42300   -2303499.8    5639.5298   -2297860.2    403.97875   -40.672434     17697912   0.27341662    92.486571 
   42400   -2304326.5    5645.0885   -2298681.5    404.37694   -137.44006     17654970   0.27408166    95.624104 
   42500   -2305177.1     5647.849   -2299529.3    404.57469   -62.609071     17614403   0.27471289     98.52808 
   42600   -2305897.8    5637.0104   -2300260.8    403.79828   -114.92311     17583351   0.27519802    101.40608 
   42700   -2306620.7    5636.8436   -2300983.8    403.78633   -61.913993     17549158   0.27573423    104.28498 
   42800   -2307496.7    5649.5786   -2301847.1    404.69858   -68.806663     17504473   0.27643811    107.17306 
   42900   -2308417.9    5653.3547   -2302764.6    404.96908   -15.948283     17462369   0.27710463    110.08546 
   43000   -2309295.4    5648.6783   -2303646.7    404.63409   -50.917927     17424921   0.27770016     112.9877 
   43100   -2310193.4    5650.2369   -2304543.2    404.74574   -130.14119     17383453   0.27836261     115.8927 
   43200   -2311088.8    5650.0735   -2305438.7    404.73403   -101.95612     17351541   0.27887457     118.8059 
   43300   -2311979.3    5650.7122   -2306328.5    404.77979   -190.28798     17324688   0.27930682    121.72103 
   43400     -2312903    5653.3753   -2307249.6    404.97055   -78.927247     17279130   0.28004323    124.64399 
   43500   -2313755.2    5647.4477   -2308107.8    404.54594    13.742515     17238995   0.28069521    127.55937 
   43600   -2314623.7    5648.3947   -2308975.3    404.61378   -6.8487714     17200903   0.28131683    130.49342 
   43700   -2315474.6    5646.3289   -2309828.2     404.4658   -103.02477     17168286   0.28185128    133.34365 
   43800   -2316460.8    5657.6223   -2310803.2    405.27478   -108.39973     17129714   0.28248595    136.18479 
   43900   -2317366.9    5650.8873     -2311716    404.79233   -54.385657     17085888   0.28321052    139.12845 
   44000   -2318325.5    5656.2974   -2312669.2    405.17987   -180.96074     17044986   0.28389013     141.9945 
   44100   -2319477.6    5672.2546   -2313805.3    406.32294    2.6347375     16988451   0.28483489    144.84078 
   44200   -2320692.8    5678.1248   -2315014.6    406.74344   -209.01295     16948358   0.28550869    147.69776 
   44300   -2321765.4    5664.3688     -2316101    405.75806   -42.810956     16914474   0.28608064    150.86757 
   44400   -2322878.4    5668.6734   -2317209.7     406.0664   -224.30448     16886046   0.28656225    154.24854 
   44500   -2323937.9    5664.1925   -2318273.7    405.74542   -177.36141     16843840   0.28728029    157.33013 
   44600   -2325065.8    5670.0297   -2319395.7    406.16357    22.827806     16799700    0.2880351    160.32205 
   44700     -2326210     5672.566   -2320537.4    406.34525   -35.309317     16751335   0.28886674    163.28866 
   44800   -2327315.8    5667.9017   -2321647.9    406.01113   -82.442958     16708421   0.28960865    166.25027 
   44900   -2328379.1    5664.6898   -2322714.4    405.78105    1.6379431     16675290   0.29018407    169.22039 
   45000     -2329353    5657.2066   -2323695.8      405.245   -213.26565     16649588   0.29063203    172.19503 
   45100   -2330222.2    5647.0682   -2324575.2    404.51875   -179.63242     16615155   0.29123432     175.1528 
   45200   -2331115.1     5649.036   -2325466.1    404.65971   0.62842823     16579734   0.29185652    178.11874 
   45300     -2332058     5653.924     -2326404    405.00986   -38.485697     16535146   0.29264353    180.97865 
   45400   -2333101.4    5662.7388   -2327438.6    405.64129   -171.20493     16489655   0.29345086    183.91112 
   45500   -2334062.6      5655.49   -2328407.1    405.12204   -181.76805     16454587   0.29407627     186.7472 
   45600   -2335091.4    5661.1516   -2329430.3     405.5276   -189.83996     16415420   0.29477793       189.73 
   45700   -2336068.7    5657.3204   -2330411.4    405.25315   -133.23931     16376969   0.29547002    192.71988 
   45800   -2336966.9    5649.6117   -2331317.3    404.70095   -117.20383     16340876   0.29612264    195.60234 
   45900   -2337878.9    5651.7772   -2332227.1    404.85608    -62.48378     16311650   0.29665321    198.46349 
   46000     -2338832    5656.3166   -2333175.7    405.18125   -108.18131     16278770   0.29725239    201.31509 
   46100   -2339678.7    5646.2946   -2334032.4    404.46334   -226.30422     16243130   0.29790462    204.23282 
   46200   -2340583.5    5651.3883   -2334932.1    404.82822   -118.67065     16210501   0.29850425    207.12066 
   46300   -2341541.5    5656.6568   -2335884.9    405.20562   -151.59041     16174648   0.29916591     210.2417 
   46400   -2342593.4    5664.0829   -2336929.3    405.73757   -10.267348     16120877   0.30016378    213.62428 
   46500     -2343677    5668.3949   -2338008.6    406.04646   -174.71453     16073539    0.3010478    216.77678 
   46600   -2344709.7    5661.7703   -2339047.9    405.57191   -53.493213     16021378   0.30202791    219.80186 
   46700   -2345855.4    5671.9562   -2340183.5    406.30157    -83.86232     15984274     0.302729      222.829 
   46800   -2346768.2    5651.3178   -2341116.9    404.82316   -72.674824     15957326   0.30324024    225.86838 
   46900   -2347688.3    5652.5061   -2342035.8    404.90829   -36.806897     15930453   0.30375177    228.93538 
   47000   -2348582.8    5650.3891   -2342932.4    404.75664   -134.17385     15900550   0.30432302    231.98566 
   47100   -2349398.9    5643.3043   -2343755.6    404.24913   -136.07057     15869235   0.30492354    235.03878 
   47200   -2350312.4    5652.1708   -2344660.2    404.88427   -115.70773     15822386    0.3058264     238.1189 
   47300   -2351251.3    5654.2025   -2345597.1    405.02981    27.095386     15777161   0.30670306    241.12238 
   47400   -2352198.1    5655.4526   -2346542.6    405.11936   -58.741633     15739551   0.30743592    244.12766 
   47500   -2353197.7    5660.3141   -2347537.4     405.4676    -243.4806     15700346   0.30820361     247.1149 
   47600   -2354269.5    5666.0639   -2348603.4    405.87948    22.658492     15646897   0.30925642    250.09935 
   47700   -2355445.6    5674.8388   -2349770.8    406.50806   -130.80683     15597390   0.31023802    253.11624 
   47800   -2356697.1    5681.1496   -2351015.9    406.96012   -79.115979     15538906   0.31140568     256.0979 
   47900   -2358085.8    5691.8206     -2352394    407.72452   -86.334523     15480326   0.31258408    259.14741 
   48000   -2359478.4    5691.6823   -2353786.7    407.71461   -71.081421     15432997   0.31354269    262.11044 
Loop time of 262.11 on 2 procs for 9000 steps with 108000 atoms

Performance: 2.967 ns/day, 8.090 hours/ns, 34.337 timesteps/s
99.3% CPU use with 2 MPI tasks x 1 OpenMP threads

MPI task timing breakdown:
Section |  min time  |  avg time  |  max time  |%varavg| %total
---------------------------------------------------------------
Pair    | 201.23     | 201.47     | 201.71     |   1.7 | 76.87
Neigh   | 32.854     | 32.957     | 33.061     |   1.8 | 12.57
Comm    | 6.8786     | 7.3053     | 7.732      |  15.8 |  2.79
Output  | 7.4403     | 7.4405     | 7.4407     |   0.0 |  2.84
Modify  | 11.621     | 11.729     | 11.838     |   3.2 |  4.48
Other   |            | 1.206      |            |       |  0.46

Nlocal:    54000 ave 54475 max 53525 min
Histogram: 1 0 0 0 0 0 0 0 0 1
Nghost:    20052.5 ave 20165 max 19940 min
Histogram: 1 0 0 0 0 0 0 0 0 1
Neighs:    2.74179e+06 ave 2.7909e+06 max 2.69268e+06 min
Histogram: 1 0 0 0 0 0 0 0 0 1

Total # of neighbors = 5483586
Ave neighs/atom = 50.7739
Neighbor list builds = 900
Dangerous builds = 900

unfix 				temp_rescale
unfix 				3



# ------------------------- STEP 4c: COOLING 400 - 300 -------------------------

print "******************** Decreasing temperature from 400 K to 300 K ********************"
******************** Decreasing temperature from 400 K to 300 K ********************

neighbor			0.5 bin
neigh_modify		every 10 delay 0 check yes

fix					4 all npt temp 300.0 300.0 0.1 iso 1 1 1 drag 0.2
fix					temp_rescale all temp/rescale 100 300 300 0.1 0.9

timestep 			0.001

run 				9000	# 10000 or 15000
Per MPI rank memory allocation (min/avg/max) = 44.96 | 45.16 | 45.35 Mbytes
Step PotEng KinEng TotEng Temp Press Volume Density CPU 
   48000   -2359478.4    5691.6823   -2353786.7    407.71461   -71.081421     15432997   0.31354269            0 
   48100   -2360953.8    4425.7856     -2356528    317.03412   -246.78516     15405156   0.31410933     2.991127 
   48200   -2362955.4    4352.4664   -2358602.9    311.78201   -251.95412     15373281   0.31476061     6.036696 
   48300   -2364272.2    4290.6095   -2359981.6    307.35099   -447.90652     15345721   0.31532592     9.404211 
   48400   -2365286.1    4262.8486   -2361023.2    305.36238   -293.04888     15303531   0.31619523    12.876332 
   48500   -2366284.3    4262.5862   -2362021.8    305.34359   -235.93721     15242543   0.31746038    16.179038 
   48600     -2367270    4262.8047   -2363007.2    305.35924   -172.26361     15181178    0.3187436    19.486725 
   48700   -2368129.6     4251.854   -2363877.8     304.5748   -157.84173     15137412   0.31966516    22.761681 
   48800   -2369066.4    4259.2206   -2364807.1    305.10249   -272.80559     15091026   0.32064774    25.916168 
   48900     -2369974    4256.3208   -2365717.7    304.89477   -133.39776     15035175   0.32183884    29.063232 
   49000   -2370842.5     4252.543     -2366590    304.62416   -244.40388     14997068   0.32265663    32.218814 
   49100   -2371837.3    4264.0681   -2367573.2    305.44974   -172.45572     14953191    0.3236034    35.351745 
   49200   -2372897.4    4270.2231   -2368627.2    305.89064   -175.30136     14912332   0.32449006    38.484321 
   49300   -2373934.9    4268.2572   -2369666.6    305.74982   -181.17643     14858061    0.3256753    41.624042 
   49400   -2374811.7     4253.502   -2370558.2    304.69285   -177.05412     14807871   0.32677915    44.766498 
   49500   -2375774.8    4261.3511   -2371513.4    305.25511   -117.31272     14768635    0.3276473    47.913836 
   49600   -2376724.7    4260.8258   -2372463.9    305.21748   -181.41061     14729332   0.32852158    51.065385 
   49700   -2377660.8    4258.9964   -2373401.8    305.08643   -178.41601     14690604   0.32938764    54.220868 
   49800   -2378663.7    4265.7953   -2374397.9    305.57346   -177.64646     14649402   0.33031407    57.388856 
   49900   -2379579.8    4258.1955   -2375321.6    305.02907   -161.75372     14606157   0.33129203    60.552375 
   50000     -2380455    4254.7173   -2376200.3    304.77991   -246.21985     14564391   0.33224207    63.721407 
   50100   -2381389.9    4259.3222   -2377130.6    305.10978   -139.24664     14515045   0.33337158    66.942029 
   50200   -2382370.1    4263.2949   -2378106.8    305.39435   -55.756936     14468953   0.33443355    70.565329 
   50300   -2383334.8    4262.2523   -2379072.6    305.31967   -170.05073     14430894   0.33531558    74.084193 
   50400   -2384263.9    4259.1628   -2380004.7    305.09836   -288.05409     14398142   0.33607832    77.446187 
   50500   -2385192.4    4258.1413   -2380934.2    305.02518   -279.06011     14360102    0.3369686    80.638156 
   50600   -2386206.5    4266.0701   -2381940.5    305.59315   -222.26449     14308533   0.33818306    83.829844 
   50700     -2387298    4271.8861   -2383026.1    306.00977   -182.68033     14249348    0.3395877    87.030763 
   50800   -2388437.2    4277.9051   -2384159.3    306.44093   -233.21394     14201733   0.34072626    90.240651 
   50900   -2389621.9    4280.5527   -2385341.4    306.63059   -287.90222     14145386   0.34208351    93.459878 
   51000   -2390869.3     4286.952   -2386582.4    307.08899   -273.75786     14094310   0.34332318    96.686059 
   51100   -2392277.9     4301.071   -2387976.8    308.10038   -210.88777     14037108   0.34472224    99.969414 
   51200   -2393699.7    4300.7343     -2389399    308.07626    -264.4302     13974379   0.34626965    103.22754 
   51300   -2395193.8    4306.6504   -2390887.2    308.50005   -254.17563     13915704   0.34772969     106.5032 
   51400   -2396459.4    4286.5452   -2392172.8    307.05985   -225.04243     13869842   0.34887949    109.76336 
   51500   -2397778.6    4290.9234   -2393487.7    307.37348   -174.54739     13819503   0.35015031    113.03511 
   51600   -2399119.7    4294.0991   -2394825.6    307.60096   -213.29353     13777184   0.35122587    116.30796 
   51700   -2400319.4    4280.6537   -2396038.7    306.63782   -235.11783     13736138    0.3522754    119.58337 
   51800   -2401614.9    4288.5843   -2397326.4    307.20592   -261.60621     13681388   0.35368512    122.89548 
   51900   -2403047.8    4301.3588   -2398746.5      308.121   -212.65812     13619147   0.35530149    126.24039 
   52000   -2404510.1    4303.5302   -2400206.6    308.27654   -336.77183     13556404   0.35694594    129.98721 
   52100   -2405988.2    4305.3207   -2401682.9     308.4048   -247.35413     13502190   0.35837915    133.51593 
   52200   -2407359.2    4295.1595     -2403064    307.67692   -236.15029     13444188   0.35992529    136.89796 
   52300   -2408769.7    4298.6197   -2404471.1    307.92479   -316.45016     13388278   0.36142837    140.22277 
   52400   -2410365.9    4314.5347   -2406051.4    309.06483   -273.67522     13321590   0.36323769    143.52405 
   52500   -2411924.7    4311.9044   -2407612.8    308.87642   -377.10456     13270237   0.36464334    146.83806 
   52600   -2413622.5    4323.9861   -2409298.5    309.74187   -218.62992     13222664   0.36595527    150.15302 
   52700   -2415099.6    4304.3113   -2410795.3     308.3325    -170.1463     13184912    0.3670031    153.47564 
   52800   -2416574.4    4305.0627   -2412269.4    308.38632   -309.06225     13145828   0.36809422    156.87912 
   52900   -2417848.4     4287.305   -2413561.1    307.11428    -278.6352     13101522   0.36933902    160.32738 
   53000   -2419086.2    4283.5005   -2414802.7    306.84175   -267.59658     13053827   0.37068848    163.68954 
   53100     -2420439    4294.3539   -2416144.7    307.61921   -194.56793     12998763   0.37225876    167.04523 
   53200   -2421717.4    4287.4514   -2417429.9    307.12477   -289.77126     12939890   0.37395244    170.41471 
   53300     -2423084    4295.5275   -2418788.5    307.70329   -235.59092     12877975   0.37575033    173.76859 
   53400   -2424480.2    4296.7703   -2420183.5    307.79231   -250.75739     12818412   0.37749632    177.08283 
   53500   -2425908.3    4301.0612   -2421607.3    308.09968   -359.99138     12763664   0.37911553    180.41217 
   53600   -2427488.8    4313.5899   -2423175.2    308.99716    -186.0831     12705567   0.38084908    183.73882 
   53700   -2428910.6    4300.2551   -2424610.4    308.04194   -275.96637     12656629   0.38232166    187.16824 
   53800     -2430376    4303.2371   -2426072.8    308.25555   -209.38221     12600772   0.38401643    191.05842 
   53900   -2431859.2    4305.1966     -2427554    308.39592   -263.07012     12545407   0.38571117    194.72629 
   54000   -2433465.6    4316.5273   -2429149.1    309.20757   -326.98025     12491886   0.38736373    198.16932 
   54100   -2434900.8    4300.1298   -2430600.7    308.03296   -278.19407     12443215   0.38887886    201.57971 
   54200     -2436319     4299.628   -2432019.4    307.99701   -300.10111     12401775   0.39017829    204.97122 
   54300   -2437694.4    4296.6948   -2433397.7     307.7869   -436.93105     12377719    0.3909366    208.37262 
   54400   -2438962.9    4287.1835   -2434675.7    307.10557   -309.40219     12351831   0.39175597    211.79148 
   54500   -2440293.4    4291.7557   -2436001.6     307.4331   -434.94984     12307467   0.39316811    215.23268 
   54600   -2441547.8    4284.7625     -2437263    306.93215   -197.59723     12256720   0.39479596    218.68535 
   54700   -2442858.5    4290.0851   -2438568.4    307.31342    -182.9205     12213870   0.39618101    222.14112 
   54800   -2444115.6    4286.4486   -2439829.2    307.05293   -317.00818     12181966   0.39721859    225.59849 
   54900   -2445332.7    4282.7406   -2441049.9    306.78731   -226.52484     12136258   0.39871461    229.06187 
   55000   -2446692.6    4296.1906   -2442396.4    307.75078   -394.35141     12082646   0.40048376     232.5376 
   55100   -2448072.9    4296.0363   -2443776.9    307.73973   -339.45801     12015384   0.40272565    235.98616 
   55200   -2449392.9    4291.1026   -2445101.8    307.38631    -398.3714     11958479   0.40464205    239.44195 
   55300   -2450921.5    4309.0533   -2446612.5    308.67219   -346.14503     11902221   0.40655465    242.93704 
   55400   -2452592.1    4322.1557   -2448269.9    309.61075   -536.38855     11842340   0.40861041    246.42364 
   55500   -2454290.1    4323.8855   -2449966.3    309.73466   -327.63444     11784976   0.41059935    250.44671 
   55600   -2455896.4    4315.7636   -2451580.7    309.15287   -236.18144     11736715    0.4122877    254.15084 
   55700   -2457502.5    4315.4718   -2453187.1    309.13196   -487.09456     11687921   0.41400892     257.6519 
   55800   -2459067.4    4311.8448   -2454755.6    308.87215     -397.707     11637659   0.41579697     261.1813 
   55900   -2460594.6    4309.1443   -2456285.5     308.6787   -345.35255     11591224   0.41746268    264.70068 
   56000   -2462066.7    4304.1408   -2457762.6    308.32028   -386.99228     11535398   0.41948302    268.23589 
   56100   -2463914.4    4335.1988   -2459579.2    310.54508   -385.98489     11457995   0.42231678    271.76174 
   56200     -2466010    4357.3504   -2461652.6    312.13187    -529.8346     11389240   0.42486622    275.30561 
   56300   -2468028.3     4350.897   -2463677.4    311.66959   -304.38317     11338083    0.4267832    278.88338 
   56400     -2469888    4337.0091     -2465551    310.67475   -422.19242     11294111   0.42844484    282.47124 
   56500   -2471833.7    4344.6615     -2467489    311.22292   -441.72602     11241425   0.43045286    286.06477 
   56600   -2473729.6    4340.2597   -2469389.4    310.90761   -382.23454     11182155   0.43273441    289.65814 
   56700     -2475543    4333.1455   -2471209.8    310.39799    -549.4849     11130946   0.43472524    293.32042 
   56800   -2477276.5    4324.2779   -2472952.3    309.76277   -454.10555     11069363   0.43714382    296.85936 
   56900   -2479065.2    4330.4066   -2474734.8    310.20179   -396.82525     11013793    0.4393494    300.41297 
   57000   -2480919.5    4336.6028   -2476582.9    310.64565   -517.25376     10959760   0.44151547    303.99441 
Loop time of 303.994 on 2 procs for 9000 steps with 108000 atoms

Performance: 2.558 ns/day, 9.383 hours/ns, 29.606 timesteps/s
99.4% CPU use with 2 MPI tasks x 1 OpenMP threads

MPI task timing breakdown:
Section |  min time  |  avg time  |  max time  |%varavg| %total
---------------------------------------------------------------
Pair    | 233.59     | 235.19     | 236.79     |  10.4 | 77.37
Neigh   | 39.77      | 40.14      | 40.51      |   5.8 | 13.20
Comm    | 6.1003     | 8.1773     | 10.254     |  72.6 |  2.69
Output  | 7.4159     | 7.4161     | 7.4164     |   0.0 |  2.44
Modify  | 11.689     | 11.811     | 11.934     |   3.6 |  3.89
Other   |            | 1.256      |            |       |  0.41

Nlocal:    54000 ave 54729 max 53271 min
Histogram: 1 0 0 0 0 0 0 0 0 1
Nghost:    22875.5 ave 23213 max 22538 min
Histogram: 1 0 0 0 0 0 0 0 0 1
Neighs:    3.24297e+06 ave 3.34223e+06 max 3.14371e+06 min
Histogram: 1 0 0 0 0 0 0 0 0 1

Total # of neighbors = 6485945
Ave neighs/atom = 60.055
Neighbor list builds = 900
Dangerous builds = 900

unfix				temp_rescale
unfix 				4



# ------------------------- STEP 5: EQUILIBRATION 2 -------------------------

print "******************** Equilibration at 300 K ********************"
******************** Equilibration at 300 K ********************

fix					equilibration2 all nve
fix					temp_rescale all temp/rescale 100 300 300 0.1 0.9

timestep 			0.001

run					10000
Per MPI rank memory allocation (min/avg/max) = 46.9 | 47.29 | 47.67 Mbytes
Step PotEng KinEng TotEng Temp Press Volume Density CPU 
   57000   -2480919.5    4336.6028   -2476582.9    310.64565   -517.25376     10959760   0.44151547            0 
   57100   -2482678.3    4371.1965   -2478307.1    313.12371    47.300816     10959760   0.44151547    3.6830199 
   57200   -2484495.6    4380.1989   -2480115.4    313.76858   -256.59515     10959760   0.44151547    7.6805711 
   57300   -2486329.6    4382.5719     -2481947    313.93857   -168.94351     10959760   0.44151547     11.42378 
   57400   -2488180.3    4384.7516   -2483795.6    314.09471   -53.496847     10959760   0.44151547     15.15801 
   57500   -2489809.7    4363.5969   -2485446.1    312.57932     -406.989     10959760   0.44151547    18.900317 
   57600   -2491576.7    4373.6744     -2487203    313.30121      46.1495     10959760   0.44151547    22.545245 
   57700     -2493388    4379.8051   -2489008.1    313.74038    -329.5247     10959760   0.44151547    26.105242 
   57800   -2495234.2    4383.8758   -2490850.4    314.03197   -116.67574     10959760   0.44151547    29.676003 
   57900   -2497062.4    4383.5085   -2492678.9    314.00566   -726.81883     10959760   0.44151547    33.241473 
   58000   -2499096.4    4401.8761   -2494694.6    315.32139   -169.89946     10959760   0.44151547    36.819813 
   58100     -2501130    4404.2764   -2496725.7    315.49334    -280.0559     10959760   0.44151547    40.383352 
   58200   -2503318.6    4419.8053   -2498898.8    316.60573   -592.17125     10959760   0.44151547    43.984902 
   58300   -2505347.8    4404.3397   -2500943.5    315.49787   -79.595582     10959760   0.44151547    47.577874 
   58400   -2507403.7    4407.4789   -2502996.3    315.72274   -279.60095     10959760   0.44151547    51.182234 
   58500   -2509539.8    4415.5983   -2505124.2    316.30436   -119.12609     10959760   0.44151547    54.811431 
   58600   -2511432.1    4391.6527   -2507040.4    314.58906    13.352543     10959760   0.44151547    58.448017 
   58700   -2513184.9    4376.6984   -2508808.2    313.51783   -216.68621     10959760   0.44151547     62.12957 
   58800   -2514887.5    4369.1952   -2510518.3    312.98035    293.56345     10959760   0.44151547    66.363598 
   58900   -2516681.8    4378.8689     -2512303    313.67331   -191.62379     10959760   0.44151547    70.300969 
   59000   -2518366.7    4368.7824   -2513997.9    312.95079   -93.833846     10959760   0.44151547    73.991284 
   59100   -2519966.9    4359.4399   -2515607.5    312.28155   -25.512091     10959760   0.44151547    77.676612 
   59200     -2521468    4349.0856   -2517118.9    311.53983   -4.6372911     10959760   0.44151547    81.348309 
   59300   -2522901.7    4341.6216   -2518560.1    311.00516    -239.1409     10959760   0.44151547     85.04528 
   59400   -2524489.7    4355.0965   -2520134.6    311.97041   -24.693234     10959760   0.44151547    88.744913 
   59500   -2526351.6     4383.461   -2521968.1    314.00226   -340.59413     10959760   0.44151547    92.467559 
   59600   -2528150.5    4378.9237   -2523771.6    313.67724   -339.31869     10959760   0.44151547     96.24137 
   59700   -2530098.6    4393.4099   -2525705.1    314.71493    225.90738     10959760   0.44151547    100.03205 
   59800   -2531818.1    4373.1895   -2527444.9    313.26648   -164.30843     10959760   0.44151547    103.79624 
   59900   -2533566.9    4374.9956   -2529191.9    313.39586   -101.72707     10959760   0.44151547    107.57305 
   60000   -2535215.5    4365.0393   -2530850.4    312.68265    49.266287     10959760   0.44151547     111.3556 
   60100   -2536637.4    4342.1353   -2532295.3    311.04196   -122.27307     10959760   0.44151547    115.12117 
   60200   -2538175.6    4350.8184   -2533824.8    311.66396    83.778399     10959760   0.44151547    118.88748 
   60300   -2539614.2    4341.8531   -2535272.4    311.02175   -108.88033     10959760   0.44151547    122.73365 
   60400   -2541147.3    4350.1622   -2536797.1    311.61695   -160.06238     10959760   0.44151547    127.09239 
   60500   -2542711.4     4353.184   -2538358.2    311.83341    -3.066829     10959760   0.44151547    131.20988 
   60600   -2544318.3    4358.1261   -2539960.1    312.18743   -175.79686     10959760   0.44151547    135.07922 
   60700     -2545944    4360.3784   -2541583.6    312.34878   -184.35285     10959760   0.44151547    138.90741 
   60800   -2547587.3     4362.404   -2543224.9    312.49387    92.240407     10959760   0.44151547    142.74692 
   60900   -2549066.6     4347.894   -2544718.7    311.45448   -248.55798     10959760   0.44151547    146.61132 
   61000     -2550591    4350.0494   -2546240.9    311.60887   -126.15281     10959760   0.44151547    150.46588 
   61100   -2551953.8    4335.2563   -2547618.6    310.54919    5.9504554     10959760   0.44151547     154.3112 
   61200   -2553213.9    4323.5951   -2548890.3    309.71386   -68.547074     10959760   0.44151547    158.18296 
   61300     -2554382    4314.3319   -2550067.7     309.0503   -46.254708     10959760   0.44151547    162.03859 
   61400   -2555399.8    4298.0074   -2551101.7    307.88093     124.1629     10959760   0.44151547    165.89897 
   61500   -2556442.1    4300.1683   -2552141.9    308.03572   -190.03084     10959760   0.44151547    169.77042 
   61600   -2557414.7    4292.7884   -2553121.9    307.50707    85.682394     10959760   0.44151547    173.64311 
   61700   -2558286.2    4282.3314   -2554003.9      306.758   -307.57517     10959760   0.44151547    177.51627 
   61800   -2559185.9    4283.9452   -2554901.9    306.87361   -47.808258     10959760   0.44151547    181.30389 
   61900   -2560081.4    4283.5175   -2555797.8    306.84296   -132.81815     10959760   0.44151547    185.60732 
   62000   -2561147.9    4299.9928   -2556847.9    308.02315   -75.113119     10959760   0.44151547    189.82833 
   62100   -2562313.4    4310.4993   -2558002.9    308.77577   -51.099756     10959760   0.44151547    193.75977 
   62200   -2563521.5    4315.7559   -2559205.8    309.15231   -72.880856     10959760   0.44151547    197.65562 
   62300     -2564627    4306.2597   -2560320.8    308.47207   -18.486788     10959760   0.44151547    201.56493 
   62400   -2565543.4    4287.6644   -2561255.7    307.14002   -212.90688     10959760   0.44151547    205.48562 
   62500   -2566386.8    4278.7221     -2562108    306.49945   -116.23334     10959760   0.44151547    209.41106 
   62600   -2567223.4    4276.2338   -2562947.1    306.32121    4.2029332     10959760   0.44151547    213.35453 
   62700   -2568157.1    4286.2767   -2563870.8    307.04062    28.217449     10959760   0.44151547    217.31419 
   62800   -2569170.6    4294.6153     -2564876    307.63794   -45.105909     10959760   0.44151547     221.2311 
   62900   -2570266.7    4303.4532   -2565963.2    308.27103   -81.367876     10959760   0.44151547    225.10797 
   63000   -2571422.1     4310.034   -2567112.1    308.74244    -223.9176     10959760   0.44151547    229.00034 
   63100   -2572528.1    4304.9121   -2568223.2    308.37553   -7.0968365     10959760   0.44151547     232.8436 
   63200   -2573500.8    4292.7362   -2569208.1    307.50334    60.245689     10959760   0.44151547    236.67412 
   63300   -2574508.3    4295.0172   -2570213.2    307.66673   -317.58964     10959760   0.44151547    240.54818 
   63400   -2575578.3    4301.1759   -2571277.1     308.1079   -45.821562     10959760   0.44151547    244.79207 
   63500   -2576561.5    4293.4862     -2572268    307.55706   -241.50819     10959760   0.44151547    249.14537 
   63600   -2577445.1    4283.3016   -2573161.8     306.8275   -182.12355     10959760   0.44151547    253.15307 
   63700   -2578337.9    4283.4021   -2574054.5     306.8347   -259.36868     10959760   0.44151547    257.15536 
   63800   -2579190.7    4279.0448   -2574911.7    306.52257    5.1258328     10959760   0.44151547    261.16237 
   63900   -2580075.6    4282.3213   -2575793.3    306.75728    8.1686362     10959760   0.44151547    265.19288 
   64000   -2580978.5    4284.3515   -2576694.1    306.90271   -54.875156     10959760   0.44151547    269.21176 
   64100   -2581855.1    4282.2753   -2577572.8    306.75399   -295.55855     10959760   0.44151547    273.19959 
   64200   -2582669.2    4274.9277   -2578394.3    306.22765   -58.395286     10959760   0.44151547    277.16019 
   64300   -2583362.9     4263.244   -2579099.6    305.39071    69.380234     10959760   0.44151547    281.07191 
   64400   -2584056.5    4262.5144     -2579794    305.33845   -217.37399     10959760   0.44151547    284.99255 
   64500   -2584725.1    4259.5793   -2580465.6    305.12819   -230.28844     10959760   0.44151547    288.94052 
   64600   -2585349.4    4255.1997   -2581094.2    304.81446   -118.97745     10959760   0.44151547    292.79045 
   64700   -2586048.4    4262.2437   -2581786.1    305.31905   -145.19778     10959760   0.44151547    296.63894 
   64800   -2586650.5    4252.6432   -2582397.8    304.63134   -263.09705     10959760   0.44151547      300.516 
   64900   -2587401.9    4266.0376   -2583135.9    305.59082   -161.20681     10959760   0.44151547     304.7548 
   65000   -2588144.9    4266.1547   -2583878.7    305.59921     58.03178     10959760   0.44151547    309.27985 
   65100   -2588882.5    4266.1843   -2584616.3    305.60133   -16.090879     10959760   0.44151547    313.40947 
   65200   -2589620.9    4266.5627   -2585354.4    305.62843   -121.67544     10959760   0.44151547    317.45188 
   65300   -2590452.7    4276.0417   -2586176.6    306.30745   -369.74161     10959760   0.44151547    321.49788 
   65400   -2591250.6    4273.0995   -2586977.5    306.09669   -47.684259     10959760   0.44151547    325.55202 
   65500   -2592145.4    4282.5392   -2587862.9    306.77289    -192.7697     10959760   0.44151547    329.61224 
   65600     -2593186     4296.533   -2588889.5    307.77531   -60.052966     10959760   0.44151547    333.68366 
   65700   -2594144.1    4290.5306   -2589853.6    307.34534   -160.96183     10959760   0.44151547    337.75639 
   65800     -2595005    4280.5416   -2590724.4    306.62979   -35.825661     10959760   0.44151547    341.83185 
   65900   -2595733.8    4267.1152   -2591466.7    305.66802     37.50235     10959760   0.44151547    345.91268 
   66000     -2596464    4266.4382   -2592197.6    305.61952   -236.82066     10959760   0.44151547    349.93974 
   66100   -2597179.3    4264.6654   -2592914.6    305.49253   -41.843179     10959760   0.44151547    353.90817 
   66200   -2598038.2    4278.3196   -2593759.9    306.47062   -187.04403     10959760   0.44151547    357.88938 
   66300     -2598770     4265.843   -2594504.2    305.57688    112.50368     10959760   0.44151547    361.89032 
   66400   -2599476.6    4263.9043   -2595212.7      305.438    27.629156     10959760   0.44151547    366.48261 
   66500   -2600287.5    4273.2205   -2596014.2    306.10536   -43.723174     10959760   0.44151547    370.95002 
   66600   -2600962.1    4261.3777   -2596700.7    305.25702   -208.77314     10959760   0.44151547    375.08207 
   66700   -2601728.8    4268.5458   -2597460.3    305.77049    246.69478     10959760   0.44151547    379.19258 
   66800   -2602254.9    4246.5676   -2598008.4    304.19612   -36.656723     10959760   0.44151547    383.30286 
   66900   -2602753.3    4242.1937   -2598511.1     303.8828   -65.104586     10959760   0.44151547     387.4192 
   67000   -2603345.4    4249.9228   -2599095.5    304.43646    72.810549     10959760   0.44151547    391.53667 
Loop time of 391.537 on 2 procs for 10000 steps with 108000 atoms

Performance: 2.207 ns/day, 10.876 hours/ns, 25.540 timesteps/s
99.4% CPU use with 2 MPI tasks x 1 OpenMP threads

MPI task timing breakdown:
Section |  min time  |  avg time  |  max time  |%varavg| %total
---------------------------------------------------------------
Pair    | 309.97     | 312.72     | 315.48     |  15.6 | 79.87
Neigh   | 54.429     | 55.133     | 55.836     |   9.5 | 14.08
Comm    | 6.4182     | 9.9266     | 13.435     | 111.4 |  2.54
Output  | 8.1736     | 8.1739     | 8.1743     |   0.0 |  2.09
Modify  | 4.0612     | 4.1043     | 4.1475     |   2.1 |  1.05
Other   |            | 1.475      |            |       |  0.38

Nlocal:    54000 ave 54760 max 53240 min
Histogram: 1 0 0 0 0 0 0 0 0 1
Nghost:    22788.5 ave 23081 max 22496 min
Histogram: 1 0 0 0 0 0 0 0 0 1
Neighs:    3.765e+06 ave 3.82486e+06 max 3.70513e+06 min
Histogram: 1 0 0 0 0 0 0 0 0 1

Total # of neighbors = 7529991
Ave neighs/atom = 69.7221
Neighbor list builds = 1000
Dangerous builds = 1000

unfix				temp_rescale
unfix				equilibration2



# ------------------------- STEP : INSTANTANEOUS EXPANSION/CONTRACTION -------------------------

# print "******************** Instantaneous contraction to required density ********************"
# timestep			0.0005
# fix				inst2 all nvt temp 300 300 0.05
# fix				inst1 all deform 1 x scale 0.79 y scale 0.79 z scale 0.79
# run				1000
# unfix				inst1
# unfix				inst2



# ------------------------- STEP : EQUILIBRATION 3 -------------------------

# print "******************** Equilibration at 300 K ********************"

# fix				equilibration3 all nve
# fix				temp_rescale all temp/rescale 100 300 300 0.1 0.9

# timestep 			0.001

# run				10000

# unfix				temp_rescale
# unfix				equilibration3



# ------------------------- STEP 6: MINIMIZATION -------------------------

print "******************** Energy minimization ********************"
******************** Energy minimization ********************

minimize 			0.01 0 1000 1000	# What does the last 1000 refer to?
WARNING: Using 'neigh_modify every 1 delay 0 check yes' setting during minimization (../min.cpp:168)
Per MPI rank memory allocation (min/avg/max) = 54.44 | 54.83 | 55.21 Mbytes
Step PotEng KinEng TotEng Temp Press Volume Density CPU 
   67000   -2603345.4    4249.9228   -2599095.5    304.43646    72.810549     10959760   0.44151547            0 
   67001   -2605416.4    4249.9228   -2601166.4    304.43646   -1548.7783     10959760   0.44151547     0.208143 
Loop time of 0.208156 on 2 procs for 1 steps with 108000 atoms

99.3% CPU use with 2 MPI tasks x 1 OpenMP threads

Minimization stats:
  Stopping criterion = energy tolerance
  Energy initial, next-to-last, final = 
        -2603345.41322     -2603345.41322     -2605416.35056
  Force two-norm initial, final = 1113.44 564.175
  Force max component initial, final = 40.1756 14.3216
  Final line search alpha, max atom move = 0.00248907 0.0356476
  Iterations, force evaluations = 1 1

MPI task timing breakdown:
Section |  min time  |  avg time  |  max time  |%varavg| %total
---------------------------------------------------------------
Pair    | 0.12089    | 0.12327    | 0.12565    |   0.7 | 59.22
Neigh   | 0          | 0          | 0          |   0.0 |  0.00
Comm    | 0.00058484 | 0.0029703  | 0.0053558  |   4.4 |  1.43
Output  | 0          | 0          | 0          |   0.0 |  0.00
Modify  | 0          | 0          | 0          |   0.0 |  0.00
Other   |            | 0.08191    |            |       | 39.35

Nlocal:    54000 ave 54760 max 53240 min
Histogram: 1 0 0 0 0 0 0 0 0 1
Nghost:    22788.5 ave 23081 max 22496 min
Histogram: 1 0 0 0 0 0 0 0 0 1
Neighs:    3.765e+06 ave 3.82486e+06 max 3.70513e+06 min
Histogram: 1 0 0 0 0 0 0 0 0 1

Total # of neighbors = 7529991
Ave neighs/atom = 69.7221
Neighbor list builds = 0
Dangerous builds = 0
min_style			cg



# ------------------------- SIMULATION DONE -------------------------

print "******************** End ********************"
******************** End ********************
Total wall time: 0:24:43
