LAMMPS (12 Dec 2018)
  using 1 OpenMP thread(s) per MPI task
# Input file for Aluminium crystal

# Run command:  lmp -in in.aluminium



# ------------------------- ATOM INITIALIZATION -------------------------

units 			metal
dimension		3
boundary		p	p	p
atom_style		atomic

print "******************** Model initialized ********************"
******************** Model initialized ********************



# ------------------------- ATOM DEFINITION -------------------------

lattice			fcc 4.05
Lattice spacing in x,y,z = 4.05 4.05 4.05
region			whole block 0 30 0 30 0 30
region			crystal block 0 30 0 30 0 30
create_box		1 whole
Created orthogonal box = (0 0 0) to (121.5 121.5 121.5)
  1 by 1 by 2 MPI processor grid
create_atoms	1 region crystal
Created 108000 atoms
  Time spent = 0.00970292 secs

print "******************** Atoms generated ********************"
******************** Atoms generated ********************



# ------------------------- FORCE FIELDS / POTENTIAL -------------------------

pair_style		lj/cut 2.5
pair_coeff		* * .3920 2.62 2.5

# pair_style		eam/alloy
# pair_coeff		* * Al_Zhou04.eam.alloy Al

print "******************** Force field set ********************"
******************** Force field set ********************



# ------------------------- SETTINGS -------------------------

mass				1 26.982

thermo_style		custom step pe ke etotal temp press vol density cpu
thermo				100

dump			 	1 all custom 100 dump_loc_atom-108000_ts-11000 id type x y z

reset_timestep		0



# ------------------------- STEP 1: EQUILIBRATION -------------------------

print "******************** Equilibration at 300 K ********************"
******************** Equilibration at 300 K ********************

velocity 			all create 300.0 199 mom yes rot no dist gaussian

fix					equilibration all npt temp 300 300 0.1 iso 1 1 1 drag 0.2

timestep 			0.001

run					10000
Neighbor list info ...
  update every 1 steps, delay 10 steps, check yes
  max neighbors/atom: 2000, page size: 100000
  master list distance cutoff = 4.5
  ghost atom cutoff = 4.5
  binsize = 2.25, bins = 54 54 54
  1 neighbor lists, perpetual/occasional/extra = 1 0 0
  (1) pair lj/cut, perpetual
      attributes: half, newton on
      pair build: half/bin/atomonly/newton
      stencil: half/bin/3d/newton
      bin: standard
Per MPI rank memory allocation (min/avg/max) = 22.02 | 22.02 | 22.02 Mbytes
Step PotEng KinEng TotEng Temp Press Volume Density CPU 
       0            0    4187.9899    4187.9899          300    2493.9968    1793613.4     2.697852            0 
     100    2188.8055    4292.4312    6481.2367    307.48149    21401.856    1839247.7    2.6309145   0.45724607 
     200    2272.8742    4699.5345    6972.4087    336.64368    21692.344    1895852.8    2.5523624   0.97048998 
     300    2246.3583    5006.6053    7252.9636    358.64021    21019.729    1950384.9    2.4809993    1.4995809 
     400    2269.0434    5207.6821    7476.7255    373.04403    20707.577    2004706.9     2.413771     2.005949 
     500    2248.7705    5326.4164    7575.1869    381.54937    20066.923    2058866.4    2.3502756    2.5060511 
     600    2176.0029    5422.9751     7598.978     388.4662    19047.828      2113343    2.2896915     3.007834 
     700    2107.9229    5477.3003    7585.2232     392.3577    18092.591    2168041.4    2.2319239    3.5064249 
     800    2052.9854    5505.3927     7558.378    394.37005    17277.335    2222645.7    2.1770917    4.0041339 
     900    1921.5817    5510.1002    7431.6819    394.70727    15942.584    2277178.5    2.1249557     4.529736 
    1000    1837.1773    5489.3014    7326.4787    393.21738    14994.573    2331324.2     2.075603     5.295517 
    1100    1734.6828    5482.4141    7217.0969    392.72402    13972.484    2384987.4     2.028901    5.8099248 
    1200    1682.0049    5465.1325    7147.1374    391.48608    13320.334    2438466.7    1.9844041     6.314358 
    1300    1622.3484    5428.5232    7050.8716    388.86363    12627.599    2491562.8    1.9421158    6.8195128 
    1400    1553.9662    5405.5176    6959.4838    387.21566    11947.432    2544216.8    1.9019226    7.3222029 
    1500    1487.4405    5378.9878    6866.4282    385.31524    11289.559    2596733.8    1.8634576    7.7941179 
    1600    1320.0909    5340.1678    6660.2587    382.53443    10055.928    2648896.3    1.8267621     8.293535 
    1700    1333.0768    5287.7546    6620.8314     378.7799    9911.8281    2700771.6    1.7916744     8.795006 
    1800    1274.3308    5259.8447    6534.1756    376.78062    9382.5366    2752688.8    1.7578825     9.291755 
    1900    1230.9637    5220.9161    6451.8799    373.99203    8949.2424    2804421.4    1.7254552    9.7877269 
    2000    1150.2219     5190.605    6340.8269    371.82074    8324.6361    2856100.8    1.6942341    10.280416 
    2100    1087.2805    5156.1964     6243.477    369.35593    7820.0781    2907629.4    1.6642092    10.762608 
    2200    1041.9377    5112.5024    6154.4401    366.22598    7426.0763    2959295.6    1.6351538    11.211875 
    2300    955.24343    5074.9963    6030.2398     363.5393    6832.2255    3010826.8    1.6071676    11.688973 
    2400    988.23778    5038.9381    6027.1759    360.95632    6887.5517    3062220.6    1.5801943    12.164624 
    2500    901.40878     4991.073    5892.4818    357.52758    6306.3116    3113700.4    1.5540684    12.613017 
    2600    878.05812    4969.8558    5847.9139    356.00772    6080.8899    3165212.6    1.5287767    13.087321 
    2700    837.49277    4940.6853    5778.1781    353.91814    5771.6542    3216976.6    1.5041774    13.563278 
    2800    850.46347    4913.9412    5764.4046    352.00236    5737.5834    3268634.1    1.4804053    14.009807 
    2900    798.16813    4890.5455    5688.7136    350.32645    5391.2496    3320609.5    1.4572335    14.480115 
    3000    761.34139    4865.9272    5627.2686    348.56296    5126.5621    3372704.8    1.4347249    14.950443 
    3100    729.74533    4846.7527    5576.4981    347.18943    4893.3425    3425080.3    1.4127854    15.384983 
    3200     753.6873    4814.0182    5567.7054    344.84454    4916.2052    3477505.6    1.3914869    15.839699 
    3300    692.85409    4781.5497    5474.4038    342.51871    4565.0087    3530168.4    1.3707288    16.294678 
    3400    665.97514    4758.0555    5424.0307    340.83574    4372.9677    3582910.5     1.350551    16.724125 
    3500    639.20205    4736.5468    5375.7488      339.295    4187.0278    3635910.4    1.3308643    17.177438 
    3600    654.94827    4713.4171    5368.3654    337.63814    4185.7421    3689351.6    1.3115864    17.606665 
    3700    610.19826      4706.31    5316.5083    337.12904    3933.6704    3743231.3    1.2927076    18.059309 
    3800    577.42806    4691.5859     5269.014     336.0743     3736.961    3797049.2    1.2743852    18.510312 
    3900    534.55912    4674.4018    5208.9609    334.84334    3501.9897      3851214    1.2564618    18.937773 
    4000    509.25459    4666.0406    5175.2952     334.2444    3345.6426    3906246.4    1.2387604    19.388423 
    4100    563.50347    4653.5207    5217.0242    333.34756    3515.4952    3961181.5    1.2215808    19.830473 
    4200     534.2023    4628.1517     5162.354    331.53029    3340.7291    4016633.1    1.2047163    20.242618 
    4300    494.21919    4615.3872    5109.6064    330.61593    3138.9317    4072227.8    1.1882693    20.679792 
    4400    500.37973    4599.0855    5099.4653    329.44818    3118.8262    4128262.8    1.1721403    21.095178 
    4500    506.45104    4579.0464    5085.4974    328.01271    3093.9702    4184703.8    1.1563312    21.523447 
    4600    492.00529    4565.8109    5057.8162    327.06461    2994.2919    4241512.7    1.1408438    21.921853 
    4700    465.01042    4556.5164    5021.5268    326.39881    2852.5074    4298622.7    1.1256869    22.340854 
    4800    458.62963     4538.025    4996.6546    325.07421    2784.7786    4355804.1    1.1109093    22.738721 
    4900    461.37167    4527.4907    4988.8624     324.3196    2758.2586    4413555.3    1.0963731    23.157568 
    5000    430.35086    4519.7596    4950.1105    323.76579     2609.862    4471976.3    1.0820503      23.5565 
    5100     417.9573    4510.1135    4928.0708    323.07481    2530.9378    4530549.1    1.0680611    23.965045 
    5200    418.55756    4493.2927    4911.8502    321.86988    2496.7809    4589507.6    1.0543404     24.34988 
    5300    407.91243    4478.4741    4886.3865    320.80837    2424.0087    4648797.2    1.0408936    24.755196 
    5400    374.41289    4480.1752    4854.5881    320.93023    2280.7253      4708840    1.0276211    25.142452 
    5500    397.67204    4461.6189     4859.291    319.60098    2324.4954    4768790.1    1.0147025    25.551224 
    5600     418.9909    4449.0301     4868.021     318.6992    2364.7978    4829465.9    1.0019541    25.938519 
    5700    363.95142    4445.5076     4809.459    318.44687    2153.9877    4890915.4   0.98936559    26.343205 
    5800    372.55796    4435.3516    4807.9095    317.71936    2151.4437    4952381.6   0.97708613    26.729972 
    5900    360.22809    4427.6627    4787.8908    317.16858    2086.5272    5014802.4   0.96492405    27.136352 
    6000    352.12975    4424.4408    4776.5706    316.93778    2034.1559    5077431.3   0.95302194    27.523407 
    6100    345.59948    4417.9613    4763.5607    316.47363    1987.8231      5140653   0.94130131    27.919762 
    6200    352.86424    4410.8115    4763.6757    315.96147    1984.0898      5204005    0.9298422    28.293474 
    6300    324.59067    4409.2002    4733.7908    315.84605    1874.2791    5267944.2   0.91855631     28.68703 
    6400    305.03998     4405.403     4710.443    315.57404    1793.1125    5332604.1   0.90741847    29.063503 
    6500    355.30657    4395.4896    4750.7962    314.86391    1917.6106    5397681.2   0.89647817    29.458809 
    6600    331.70535    4380.5251    4712.2304    313.79195    1823.3295    5463190.9   0.88572842    29.837982 
    6700    304.63635     4373.872    4678.5083    313.31537    1722.7297    5528973.2   0.87519024    30.236854 
    6800    298.88246    4367.0799    4665.9624    312.82883      1681.77    5595747.3   0.86474659    30.613497 
    6900    323.70442    4360.5316     4684.236    312.35975    1731.2041    5662780.1   0.85451021    31.021342 
    7000    277.61682    4356.0381    4633.6549    312.03787    1581.2061    5730414.1   0.84442474    31.420277 
    7100    278.97103    4350.5535    4629.5246    311.64499    1566.2971    5798708.7   0.83447948    31.832174 
    7200    278.87774    4347.0273     4625.905    311.39239    1547.9963    5867805.4   0.82465301    32.269739 
    7300    266.02374    4348.3686    4614.3924    311.48847    1494.9058    5937417.3   0.81498456    32.735836 
    7400    270.71511    4345.0666    4615.7817    311.25194    1488.8831    6006874.2   0.80556097    33.180559 
    7500     264.4064    4341.7074    4606.1138    311.01131    1456.2194    6077318.6   0.79622341    33.652987 
    7600    251.29364     4334.926    4586.2196    310.52553    1403.8954    6148340.7    0.7870259    34.092188 
    7700    242.43751    4329.6258    4572.0633    310.14586    1364.6314    6219895.1   0.77797187    34.572611 
    7800    262.76956    4321.3543    4584.1238    309.55334     1398.378    6291901.7    0.7690685    35.008156 
    7900    243.44801    4314.1756    4557.6236    309.03911    1332.3479    6364507.1   0.76029507    37.140479 
    8000    254.11865    4311.6749    4565.7936    308.85998    1342.9622    6438288.6   0.75158224    37.566973 
    8100    253.22217    4315.3063    4568.5285    309.12011    1326.2764      6512553   0.74301175    37.991796 
    8200    243.73194    4308.8581      4552.59     308.6582    1287.6288    6587165.9   0.73459565    38.392069 
    8300    235.10825    4304.0147    4539.1229    308.31125    1251.8588    6662492.8   0.72629023    38.812804 
    8400    271.60125    4296.6419    4568.2431    307.78311    1322.3456    6737972.5   0.71815422    39.214835 
    8500    228.08747    4302.0725    4530.1599    308.17212    1207.9324    6814707.4   0.71006767    39.618919 
    8600    212.26767    4300.7859    4513.0536    308.07996    1156.3945    6892015.1   0.70210284    40.039616 
    8700    217.88814    4296.1707    4514.0588    307.74936    1156.3702    6970125.7   0.69423474    40.444039 
    8800    222.79266    4289.2017    4511.9943    307.25014     1153.575    7048494.9   0.68651584    40.867175 
    8900    206.44832    4283.8512    4490.2995    306.86687    1101.3243    7127487.7    0.6789073    41.272432 
    9000    214.59958    4284.2989    4498.8984    306.89894     1109.005    7207481.9   0.67137226    41.695106 
    9100    203.46633    4280.1899    4483.6563     306.6046    1070.2044    7287865.5   0.66396717    42.112258 
    9200     191.5359     4281.333    4472.8689    306.68648    1034.1906    7369025.4   0.65665446    42.505278 
    9300    218.92004    4276.9774    4495.8974    306.37448    1080.8684      7450950   0.64943442    42.919336 
    9400    180.57643    4275.6709    4456.2473    306.28088    987.30001      7533551   0.64231376    43.315184 
    9500    203.49644    4275.8661    4479.3625    306.29487    1024.8054    7616961.4   0.63528002    43.726086 
    9600    174.52409    4271.7532    4446.2773    306.00025    952.50294    7700759.2   0.62836706    44.109179 
    9700    190.89442    4269.0944    4459.9888    305.80979    976.48677    7785656.9   0.62151511    44.499682 
    9800    171.59382     4269.178    4440.7719    305.81578    926.41277    7871026.7   0.61477411     44.87437 
    9900    188.47609    4264.2039    4452.6799    305.45946    949.57868    7956978.1   0.60813331    45.264286 
   10000    192.69984    4258.5198    4451.2197     305.0523    946.29657      8043648    0.6015807    45.640324 
Loop time of 45.6404 on 2 procs for 10000 steps with 108000 atoms

Performance: 18.931 ns/day, 1.268 hours/ns, 219.104 timesteps/s
96.5% CPU use with 2 MPI tasks x 1 OpenMP threads

MPI task timing breakdown:
Section |  min time  |  avg time  |  max time  |%varavg| %total
---------------------------------------------------------------
Pair    | 13.14      | 13.159     | 13.178     |   0.5 | 28.83
Neigh   | 5.8699     | 5.8781     | 5.8863     |   0.3 | 12.88
Comm    | 1.7468     | 1.7645     | 1.7822     |   1.3 |  3.87
Output  | 10.099     | 10.1       | 10.1       |   0.0 | 22.13
Modify  | 12.921     | 12.957     | 12.993     |   1.0 | 28.39
Other   |            | 1.782      |            |       |  3.90

Nlocal:    54000 ave 54003 max 53997 min
Histogram: 1 0 0 0 0 0 0 0 0 1
Nghost:    10283.5 ave 10294 max 10273 min
Histogram: 1 0 0 0 0 0 0 0 0 1
Neighs:    123180 ave 123239 max 123120 min
Histogram: 1 0 0 0 0 0 0 0 0 1

Total # of neighbors = 246359
Ave neighs/atom = 2.2811
Neighbor list builds = 263
Dangerous builds = 0

unfix				equilibration



# ------------------------- STEP 2: INCREASE TEMPERATURE -------------------------

print "******************** Increasing temperature to 700 K ********************"
******************** Increasing temperature to 700 K ********************

neighbor			0.5 bin
neigh_modify		every 10 delay 0 check yes

velocity			all create 700.0 199 mom yes rot yes dist gaussian

fix					inc_temp all npt temp 700.0 700.0 0.1 iso 1 1 1 drag 0.2

timestep 			0.001

run 				10000
Per MPI rank memory allocation (min/avg/max) = 27.28 | 27.29 | 27.29 Mbytes
Step PotEng KinEng TotEng Temp Press Volume Density CPU 
   10000    192.69984    9771.9765    9964.6763          700    1678.4296      8043648    0.6015807            0 
   10100    394.05005    9763.6562    10157.706    699.40399     2032.632    8150515.5   0.59369292   0.39833307 
   10200    375.79044    9783.5203    10159.311    700.82692    1972.4482    8270440.5   0.58508412   0.78811908 
   10300    374.28345    9815.2561     10189.54    703.10027    1948.6263    8376964.1   0.57764404    1.1798232 
   10400    369.26145    9784.4778    10153.739    700.89551    1910.9254    8480697.7   0.57057846    1.5722861 
   10500    341.65038    9783.5463    10125.197    700.82879    1838.9266    8582265.3    0.5638259      1.96754 
   10600    355.78084    9787.9288     10143.71    701.14272    1843.3934    8683147.9   0.55727525    2.3644252 
   10700    392.46886    9779.6256    10172.094    700.54793    1885.9893      8783498   0.55090847    2.7638571 
   10800    339.83312    9782.2756    10122.109    700.73776    1774.0595      8883808   0.54468798    3.1657641 
   10900    353.81244    9790.6586    10144.471    701.33827    1777.6529    8984482.4   0.53858455    3.5698571 
   11000    347.70402     9797.571    10145.275    701.83342    1749.6722    9084991.1    0.5326261     3.983022 
   11100    335.14551    9797.8689    10133.014    701.85476    1709.7908    9185807.2   0.52678042    4.3673341 
   11200    320.83463    9790.4974    10111.332    701.32672    1666.5165    9287034.4    0.5210386     4.753247 
   11300    323.06901    9781.0588    10104.128    700.65059    1649.9616    9388577.6   0.51540325    5.1416011 
   11400    339.77794    9781.2826    10121.061    700.66663    1659.3381    9490524.6    0.5098668    5.5323322 
   11500    300.11172    9777.8408    10077.952    700.42008    1575.4785      9593125   0.50441367     5.925334 
   11600    310.84752    9774.4399    10085.287    700.17646    1577.0472    9695877.2   0.49906814     6.321429 
   11700    331.86718     9744.614    10076.481    698.03993    1588.6507    9799425.2   0.49379462     6.719054 
   11800    322.86855    9744.3655    10067.234    698.02213     1560.003    9903699.2   0.48859555    7.1193821 
   11900    302.12778    9775.7862    10077.914    700.27291    1514.2319     10008546   0.48347718    7.5232351 
   12000    299.98924    9809.1198    10109.109     702.6607    1499.0793     10114472   0.47841386    7.9357491 
   12100    323.30069    9777.7225    10101.023    700.41161    1514.3512     10221043    0.4734256    8.3172641 
   12200     310.9077    9767.6052    10078.513    699.68687    1479.3492     10327856   0.46852932     8.702668 
   12300    285.43216    9778.2822    10063.714     700.4517    1426.8518     10435754   0.46368508    9.0893321 
   12400    264.30658    9778.9436     10043.25    700.49908     1381.801     10544465   0.45890459     9.479593 
   12500    267.72866    9748.2027    10015.931    698.29701    1369.1866     10654061   0.45418395      9.87044 
   12600    290.82149    9750.7647    10041.586    698.48053    1387.7526     10763970   0.44954636    10.265373 
   12700    269.91728    9804.5361    10074.453    702.33235    1350.0323     10875168   0.44494977    10.661677 
   12800    278.70041    9816.3565    10095.057    703.17909    1348.8734     10987781   0.44038949    11.061852 
   12900    270.84244    9773.7651    10044.608    700.12813    1320.3086     11101013   0.43589746    11.462773 
   13000    237.37169    9773.6755    10011.047    700.12171    1261.0272     11214698   0.43147872    11.871612 
   13100     275.3789    9774.9448    10050.324    700.21263    1300.4417     11329436   0.42710895     12.25085 
   13200    282.23101    9760.0066    10042.238    699.14256      1294.65     11444938   0.42279859    12.632668 
   13300    253.02002    9745.7616    9998.7816    698.12214    1242.5588     11561581   0.41853302    13.017276 
   13400    234.21181    9761.2066    9995.4184    699.22851     1205.234     11678758   0.41433373     13.40512 
   13500    268.29233    9810.8772     10079.17    702.78659    1242.9659     11797866   0.41015072    13.793573 
   13600    265.12462    9784.8484    10049.973    700.92206    1222.2881     11917900   0.40601979    14.185031 
   13700    243.91055    9757.5626    10001.473    698.96748    1182.2932     12038430    0.4019547    14.578781 
   13800    218.01748    9769.2294    9987.2469    699.80322    1137.9418     12159511   0.39795213    14.974646 
   13900    225.22957    9780.6551    10005.885    700.62168    1136.4089     12281945    0.3939851     15.37299 
   14000    242.93103    9769.2452    10012.176    699.80435    1145.0633     12405332   0.39006641    15.781207 
   14100    217.93733    9741.3513    9959.2886    697.80621    1101.8784     12529849   0.38619007    16.158604 
   14200    246.42654    9758.4387    10004.865    699.03024    1126.7864     12655553   0.38235415    16.539379 
   14300    254.46534    9803.2691    10057.734     702.2416    1129.6146     12782397   0.37855995    16.921875 
   14400    220.51478    9784.4692    10004.984    700.89489    1076.2776     12910529   0.37480288    17.307038 
   14500     196.0254    9741.5376     9937.563    697.81956    1032.5166     13039278   0.37110209    17.694068 
   14600    206.33137    9758.7955    9965.1269     699.0558    1035.9475     13169115   0.36744331    18.085689 
   14700     238.4321    9788.2006    10026.633    701.16219    1065.5448     13299950   0.36382868    18.477784 
   14800    209.76028    9791.8275    10001.588      701.422    1021.5837     13432482   0.36023897     18.87462 
   14900    190.98563    9736.8283    9927.8139    697.48221    986.19795     13565905   0.35669596    19.272341 
   15000     202.8394    9755.0438    9957.8831    698.78705    991.81593     13700197   0.35319954    21.646844 
   15100     188.3776     9794.397    9982.7746    701.60606    969.05598     13835993     0.349733    22.023515 
   15200    197.56689    9786.1243    9983.6912    701.01346    968.25124     13972622   0.34631319    22.404063 
   15300     209.7082    9738.0456    9947.7538    697.56941    968.78599     14110430   0.34293097    22.787613 
   15400    186.97949    9732.6033    9919.5828    697.17957    934.36343     14249338   0.33958794    23.172182 
   15500    182.56495    9790.1498    9972.7148    701.30182    924.36284     14389660   0.33627642    23.559577 
   15600    195.26387    9792.0321     9987.296    701.43665    929.00221     14531871   0.33298558    23.949617 
   15700    210.21093    9765.4508    9975.6617    699.53254    933.79372     14674970   0.32973856     24.34884 
   15800    194.48149    9754.8074    9949.2889    698.77012    907.52494     14818799   0.32653815    24.744463 
   15900    188.61612    9785.8245    9974.4406    700.99198    895.52362     14964130   0.32336684    25.142667 
   16000    197.33612    9804.3566    10001.693     702.3195    895.75269     15111127   0.32022122    25.549986 
   16100    171.32857    9766.8196    9938.1482     699.6306    858.30378     15259173   0.31711439    25.921056 
   16200     179.5239    9732.9869    9912.5108    697.20704    856.24021     15408514   0.31404088    26.293581 
   16300    180.50182    9773.4353    9953.9372     700.1045    851.60375     15559043   0.31100264    26.670239 
   16400    172.58789    9797.8699    9970.4578    701.85484    837.40656     15711206   0.30799057    27.047395 
   16500    159.08007    9773.6801    9932.7601    700.12203    813.85749     15864174   0.30502082    27.433097 
   16600    180.86334    9756.0432    9936.9065    698.85864    826.87639     16018511   0.30208198    27.825127 
   16700    173.54192    9771.6384    9945.1803    699.97578    812.86486     16174166   0.29917484    28.219332 
   16800    183.20527    9807.3285    9990.5338    702.53239    817.23109     16331370     0.296295    28.611047 
   16900    149.25925    9781.4577     9930.717    700.67917     774.2764     16490209   0.29344099    29.003431 
   17000    157.90991    9735.4366    9893.3465    697.38252    772.41228     16649980   0.29062517    29.404972 
   17100    163.36754    9746.2789    9909.6464    698.15919    770.96303     16810868   0.28784376    29.773984 
   17200    157.65227    9785.4728    9943.1251    700.96679     760.0721     16973490   0.28508593    30.152434 
   17300    144.14526    9774.2754    9918.4207    700.16468    740.22348     17137503   0.28235756    30.530054 
   17400     132.0458    9761.5057    9893.5515    699.24994    721.88653     17303133   0.27965475    30.911475 
   17500    141.03009    9776.7143    9917.7444    700.33939    723.56773     17470214   0.27698021    31.296327 
   17600    146.10264    9805.1911    9951.2937    702.37928    723.17712     17639487   0.27432223     31.68542 
   17700    179.41274    9768.4326    9947.8453    699.74614    742.87446     17809612   0.27170179    32.080082 
   17800    153.23294    9725.7346    9878.9676    696.68754    710.41258     17980758   0.26911565    32.471701 
   17900    160.01403    9755.5197    9915.5338    698.82115    711.16769     18153584   0.26655361    32.870476 
   18000    135.23371     9780.112    9915.3457    700.58278    684.61992     18328260   0.26401325    33.280433 
   18100    144.70133    9769.0465    9913.7478    699.79011    685.77181     18504648   0.26149665    33.656506 
   18200    144.40556    9764.2932    9908.6988    699.44962    678.56817     18682157   0.25901202    34.032873 
   18300    148.13657    9788.9099    9937.0465      701.213    676.29928     18861339   0.25655143    34.414627 
   18400    146.56085    9793.6073    9940.1682    701.54949    669.45144     19042281   0.25411364    34.796491 
   18500    130.32992     9760.437     9890.767    699.17339    648.35932     19224995   0.25169855     35.18237 
   18600    138.89386    9733.1351     9872.029    697.21766    647.16628     19408269   0.24932174    35.571758 
   18700    131.00126    9771.9392    9902.9404    699.99733    637.06959     19593732    0.2469618    35.965587 
   18800    127.47311     9774.922    9902.3951      700.211    628.10506     19780435   0.24463079    36.367869 
   18900    145.97951    9762.2937    9908.2732    699.30639    636.20171     19968748   0.24232383    36.769548 
   19000    111.11332    9773.9954    9885.1087    700.14462    604.19825     20158741   0.24003996     37.18229 
   19100    126.51456    9791.6043    9918.1189    701.40601     610.4674     20350416   0.23777909    37.560418 
   19200    136.82899    9776.6848    9913.5138    700.33727    612.28114     20544657   0.23553099    37.939378 
   19300     131.7338     9747.796    9879.5298    698.26787    600.39287     20739696   0.23331602    38.322236 
   19400    128.57449    9763.8513    9892.4258    699.41797    594.06364     20936627   0.23112144     38.70858 
   19500    122.52558    9780.6021    9903.1277    700.61788      584.908     21135606   0.22894557    39.100937 
   19600    132.73639    9769.4747    9902.2111    699.82079    586.09066     21336425   0.22679073    39.497541 
   19700    128.88074    9769.0474    9897.9281    699.79018    578.08278     21538775   0.22466011    39.899725 
   19800    127.43716    9793.5433    9920.9804     701.5449    572.54948     21743363   0.22254623    40.305416 
   19900    117.10055    9782.7041    9899.8047    700.76846    559.05585     21949672   0.22045448    40.707492 
   20000    134.92663    9755.0915    9890.0181    698.79047    564.99242     22157057   0.21839107    41.126134 
Loop time of 41.1262 on 2 procs for 10000 steps with 108000 atoms

Performance: 21.009 ns/day, 1.142 hours/ns, 243.154 timesteps/s
96.9% CPU use with 2 MPI tasks x 1 OpenMP threads

MPI task timing breakdown:
Section |  min time  |  avg time  |  max time  |%varavg| %total
---------------------------------------------------------------
Pair    | 4.5502     | 4.582      | 4.6138     |   1.5 | 11.14
Neigh   | 10.828     | 10.829     | 10.831     |   0.0 | 26.33
Comm    | 1.5367     | 1.5687     | 1.6006     |   2.6 |  3.81
Output  | 10.317     | 10.318     | 10.318     |   0.0 | 25.09
Modify  | 12.887     | 12.89      | 12.893     |   0.1 | 31.34
Other   |            | 0.9384     |            |       |  2.28

Nlocal:    54000 ave 54102 max 53898 min
Histogram: 1 0 0 0 0 0 0 0 0 1
Nghost:    4675.5 ave 4766 max 4585 min
Histogram: 1 0 0 0 0 0 0 0 0 1
Neighs:    6756 ave 6785 max 6727 min
Histogram: 1 0 0 0 0 0 0 0 0 1

Total # of neighbors = 13512
Ave neighs/atom = 0.125111
Neighbor list builds = 1000
Dangerous builds = 1000

unfix 				inc_temp



# ------------------------- BINDING FORCE FIELDS / POTENTIAL -------------------------

pair_style		lj/cut 10
pair_coeff		* * 3.920 2.62 10

# pair_style		eam/alloy
# pair_coeff		* * Al_Zhou04.eam.alloy Al

print "******************** Force field altered for binding ********************"
******************** Force field altered for binding ********************



# ------------------------- STEP 3: NVE INTERACTION  -------------------------

print "******************** NVE interaction ********************"
******************** NVE interaction ********************

neighbor			0.5 bin
neigh_modify		every 10 delay 0 check yes

fix					nve all nve
fix					temp_rescale all temp/rescale 100 700 700 0.1 0.9

timestep 			0.001

run 				10000
Per MPI rank memory allocation (min/avg/max) = 36.94 | 36.94 | 36.94 Mbytes
Step PotEng KinEng TotEng Temp Press Volume Density CPU 
   20000   -197764.46    9755.0915   -188009.37    698.79047   -3266.4391     22157057   0.21839107            0 
   20100   -370314.43    26969.514   -343344.92    1931.9182   -9844.7532     22157057   0.21839107    1.1813529 
   20200   -543993.61    28814.149   -515179.46    2064.0558   -10930.859     22157057   0.21839107    2.3739469 
   20300   -726401.26    29842.494   -696558.77    2137.7196    -11807.51     22157057   0.21839107    3.5465949 
   20400   -907618.69    29797.175   -877821.51    2134.4733   -10907.766     22157057   0.21839107    4.7556639 
   20500     -1075854    28476.504   -1047377.5    2039.8691   -10424.442     22157057   0.21839107     6.198818 
   20600   -1225283.8    26456.052   -1198827.8    1895.1372   -8636.5657     22157057   0.21839107    7.6557159 
   20700   -1352385.7    24026.878   -1328358.8    1721.1272   -7171.1126     22157057   0.21839107    10.177918 
   20800   -1457832.3    21626.812   -1436205.5    1549.2023    -5865.735     22157057   0.21839107    11.675004 
   20900     -1544221    19492.393   -1524728.6    1396.3066    -4053.437     22157057   0.21839107     13.22887 
   21000   -1612530.5    17487.137   -1595043.3    1252.6632   -3634.2372     22157057   0.21839107     14.83374 
   21100   -1666418.5    15856.619   -1650561.9    1135.8637   -3259.5645     22157057   0.21839107    16.334926 
   21200   -1710032.6    14676.663   -1695355.9    1051.3394   -3048.0753     22157057   0.21839107    17.879625 
   21300   -1745480.1    13748.421   -1731731.7    984.84627   -2414.4468     22157057   0.21839107    19.391904 
   21400   -1775109.1    13081.313   -1762027.8    937.05907   -2444.4208     22157057   0.21839107    20.922734 
   21500   -1800367.1    12581.644   -1787785.5    901.26605   -2071.7152     22157057   0.21839107    22.487885 
   21600   -1822145.7    12186.801   -1809958.9    872.98213   -1343.6657     22157057   0.21839107    24.086935 
   21700   -1841325.7    11892.102   -1829433.6    851.87184   -1563.4855     22157057   0.21839107    25.722334 
   21800   -1858729.3    11687.561   -1847041.8    837.21984   -1366.4822     22157057   0.21839107    27.385841 
   21900   -1874378.3    11494.303     -1862884    823.37614   -1162.4743     22157057   0.21839107    29.079095 
   22000   -1888526.2    11327.185     -1877199    811.40492   -1358.1008     22157057   0.21839107    30.800015 
   22100     -1902019     11245.07     -1890774    805.52268    -1014.566     22157057   0.21839107    32.505289 
   22200   -1914237.8    11111.611   -1903126.2    795.96261   -1143.2777     22157057   0.21839107    34.237786 
   22300   -1925702.5    11024.979   -1914677.5    789.75686   -1116.0953     22157057   0.21839107     35.99405 
   22400   -1936697.8    10969.162   -1925728.6    785.75848   -1123.1485     22157057   0.21839107    37.773739 
   22500   -1947063.2    10901.258   -1936161.9    780.89429   -928.77079     22157057   0.21839107    39.577388 
   22600   -1956536.2    10807.111   -1945729.1    774.15023   -838.13125     22157057   0.21839107    41.403466 
   22700   -1965626.5    10759.627   -1954866.9    770.74878   -923.75537     22157057   0.21839107    43.252188 
   22800   -1974134.3    10698.394   -1963435.9    766.36245    -691.9456     22157057   0.21839107    45.122227 
   22900   -1982499.8    10678.273   -1971821.5    764.92113   -828.19926     22157057   0.21839107    47.013369 
   23000   -1990739.8    10663.497   -1980076.3    763.86263   -868.59081     22157057   0.21839107    48.931786 
   23100   -1998570.4    10622.603   -1987947.8    760.93327   -760.96342     22157057   0.21839107    50.839847 
   23200   -2005937.2     10574.49   -1995362.7    757.48676   -839.73774     22157057   0.21839107    52.768655 
   23300   -2012722.9    10511.461   -2002211.4    752.97181   -767.71986     22157057   0.21839107    54.714828 
   23400   -2019190.4    10474.613   -2008715.8    750.33226   -640.13922     22157057   0.21839107    56.679539 
   23500   -2025554.9    10461.163   -2015093.8    749.36877   -682.83531     22157057   0.21839107    58.661873 
   23600   -2031580.1    10426.097     -2021154    746.85687   -589.40518     22157057   0.21839107    60.661529 
   23700   -2037515.7    10414.292   -2027101.4    746.01127   -703.25047     22157057   0.21839107    62.678029 
   23800   -2043054.2    10372.848   -2032681.3     743.0425   -509.23681     22157057   0.21839107    64.637223 
   23900   -2048721.6    10381.377   -2038340.2    743.65342   -443.36629     22157057   0.21839107     66.95266 
   24000   -2054140.4     10358.59   -2043781.8    742.02111   -476.39636     22157057   0.21839107     69.39109 
   24100     -2059350    10336.127   -2049013.8    740.41203   -443.58756     22157057   0.21839107    71.702454 
   24200   -2064126.2    10291.918   -2053834.3    737.24521   -470.80869     22157057   0.21839107    73.908636 
   24300   -2068674.9    10265.274   -2058409.6    735.33656   -348.31779     22157057   0.21839107    76.129916 
   24400   -2073313.3    10271.618   -2063041.7    735.79099   -467.17426     22157057   0.21839107    78.364453 
   24500   -2077868.7    10263.924   -2067604.8    735.23987   -487.47964     22157057   0.21839107    80.611451 
   24600   -2081946.2    10216.184     -2071730    731.82011   -536.32931     22157057   0.21839107    82.830318 
   24700   -2086161.8    10225.655   -2075936.2    732.49854   -272.30498     22157057   0.21839107    84.976103 
   24800   -2089969.4    10186.737   -2079782.7    729.71071    -418.9722     22157057   0.21839107    87.126378 
   24900   -2093576.7    10162.809   -2083413.9    727.99665   -329.07125     22157057   0.21839107    89.286985 
   25000   -2097286.9    10170.458   -2087116.4    728.54458    -374.8353     22157057   0.21839107    91.460519 
   25100   -2101100.9    10180.665   -2090920.2    729.27574   -152.95394     22157057   0.21839107    93.626637 
   25200   -2104636.6    10155.185   -2094481.4    727.45055   -313.93119     22157057   0.21839107    95.806803 
   25300   -2108363.5    10171.408   -2098192.1    728.61267   -179.22722     22157057   0.21839107    97.998378 
   25400   -2111814.4    10146.687   -2101667.7    726.84177   -446.81211     22157057   0.21839107    100.20134 
   25500   -2115029.7    10121.516   -2104908.2    725.03868    -199.5415     22157057   0.21839107    102.41473 
   25600   -2118049.2    10099.869   -2107949.3    723.48803   -349.28771     22157057   0.21839107    104.63754 
   25700   -2120947.2    10085.712   -2110861.5    722.47395   -176.79622     22157057   0.21839107       106.87 
   25800   -2123534.7    10054.273   -2113480.4    720.22187   -347.75214     22157057   0.21839107    109.11551 
   25900   -2126095.2    10048.444   -2116046.8    719.80432   -367.43991     22157057   0.21839107    111.36429 
   26000   -2128698.3     10051.81   -2118646.5     720.0454   -157.31447     22157057   0.21839107    113.62226 
   26100   -2131172.1    10040.517   -2121131.6    719.23644   -326.56888     22157057   0.21839107    115.87268 
   26200   -2133671.7    10040.875   -2123630.8    719.26209   -330.66989     22157057   0.21839107    118.13203 
   26300   -2135974.9    10020.975   -2125953.9    717.83662   -225.08579     22157057   0.21839107    120.40077 
   26400   -2138414.4    10033.166   -2128381.2    718.70991    -290.3096     22157057   0.21839107    122.67822 
   26500   -2140901.2     10038.42   -2130862.8    719.08627    -318.1532     22157057   0.21839107     124.8546 
   26600   -2143163.4    10017.382     -2133146     717.5792   -205.72584     22157057   0.21839107    127.53441 
   26700   -2145387.1    10011.916   -2135375.2    717.18771   -134.85788     22157057   0.21839107    130.20452 
   26800   -2147386.2    9989.1187   -2137397.1    715.55464   -94.232688     22157057   0.21839107    132.72397 
   26900   -2149453.2    9994.4842   -2139458.7    715.93899   -211.45353     22157057   0.21839107    135.17528 
   27000   -2151602.9    10002.436   -2141600.5    716.50861   -174.38539     22157057   0.21839107    137.50668 
   27100   -2153289.9    9957.9522     -2143332    713.32207   -226.86056     22157057   0.21839107    139.82941 
   27200   -2155114.4    9967.0167   -2145147.4    713.97139   -134.30437     22157057   0.21839107    142.15603 
   27300   -2157280.8    10001.226   -2147279.6     716.4219      -291.81     22157057   0.21839107    144.48893 
   27400   -2159253.6    9984.9752   -2149268.6    715.25782   -234.58707     22157057   0.21839107    146.83287 
   27500   -2161311.8    9992.3463   -2151319.4    715.78584   -212.42126     22157057   0.21839107     149.1816 
   27600   -2163278.8    9983.4254   -2153295.4    715.14681   -105.51659     22157057   0.21839107    151.53708 
   27700   -2165191.1    9978.5835   -2155212.5    714.79996   -277.95006     22157057   0.21839107     154.0158 
   27800   -2167190.1      9985.32   -2157204.8    715.28252   -169.38111     22157057   0.21839107    156.38517 
   27900   -2169069.6    9974.6942   -2159094.9    714.52136   -62.287662     22157057   0.21839107    158.76325 
   28000   -2170937.1    9973.4337   -2160963.7    714.43107   -78.365782     22157057   0.21839107    161.15222 
   28100   -2172664.7    9959.2346   -2162705.5    713.41394   -115.31678     22157057   0.21839107    163.53385 
   28200   -2174286.9    9947.6212   -2164339.3    712.58203   -208.37482     22157057   0.21839107     165.9229 
   28300   -2175774.4    9933.1515   -2165841.3    711.54552   -215.16825     22157057   0.21839107    168.31821 
   28400   -2177373.4    9942.3557     -2167431    712.20484   -91.828567     22157057   0.21839107    170.72225 
   28500   -2178896.6    9936.5104   -2168960.1    711.78612   -245.56092     22157057   0.21839107    173.12995 
   28600   -2180369.3    9930.7115   -2170438.6    711.37073   -126.21001     22157057   0.21839107    175.54242 
   28700   -2181775.4    9924.1103   -2171851.3    710.89786   -243.15035     22157057   0.21839107    177.96011 
   28800   -2183357.4    9940.0782   -2173417.3     712.0417   -167.03661     22157057   0.21839107    180.38162 
   28900   -2184831.9    9930.7434   -2174901.1    711.37301   -117.09547     22157057   0.21839107    182.80749 
   29000   -2186242.1    9923.7575   -2176318.4    710.87259   -67.805198     22157057   0.21839107    185.17503 
   29100     -2187697    9927.7555   -2177769.2    711.15898   -122.31983     22157057   0.21839107    187.96845 
   29200     -2189020     9915.332   -2179104.6    710.26904   -119.33062     22157057   0.21839107    190.78951 
   29300   -2190426.7    9922.5816   -2180504.1    710.78835   -22.047827     22157057   0.21839107    193.41836 
   29400   -2191645.5    9904.7097   -2181740.8    709.50813   -45.710888     22157057   0.21839107    196.00966 
   29500   -2192771.9    9894.3028   -2182877.6    708.76265   -192.82338     22157057   0.21839107    198.48871 
   29600   -2193936.3    9897.2186   -2184039.1    708.97152   -159.90539     22157057   0.21839107    200.94034 
   29700   -2195061.9     9892.732   -2185169.1    708.65013    159.68042     22157057   0.21839107    203.39355 
   29800   -2196068.1    9881.1294     -2186187      707.819   -134.73238     22157057   0.21839107     205.8524 
   29900   -2197114.5    9884.4812     -2187230     708.0591   -153.58426     22157057   0.21839107    208.31403 
   30000   -2198241.5    9891.8911   -2188349.6    708.58989   -193.56816     22157057   0.21839107    210.78216 
Loop time of 210.782 on 2 procs for 10000 steps with 108000 atoms

Performance: 4.099 ns/day, 5.855 hours/ns, 47.442 timesteps/s
99.1% CPU use with 2 MPI tasks x 1 OpenMP threads

MPI task timing breakdown:
Section |  min time  |  avg time  |  max time  |%varavg| %total
---------------------------------------------------------------
Pair    | 158.43     | 160.2      | 161.98     |  14.0 | 76.00
Neigh   | 30.46      | 30.805     | 31.149     |   6.2 | 14.61
Comm    | 2.7448     | 4.8396     | 6.9343     |  95.2 |  2.30
Output  | 9.7639     | 9.7642     | 9.7645     |   0.0 |  4.63
Modify  | 4.0353     | 4.0533     | 4.0713     |   0.9 |  1.92
Other   |            | 1.119      |            |       |  0.53

Nlocal:    54000 ave 54032 max 53968 min
Histogram: 1 0 0 0 0 0 0 0 0 1
Nghost:    18074.5 ave 18289 max 17860 min
Histogram: 1 0 0 0 0 0 0 0 0 1
Neighs:    2.19153e+06 ave 2.22654e+06 max 2.15652e+06 min
Histogram: 1 0 0 0 0 0 0 0 0 1

Total # of neighbors = 4383060
Ave neighs/atom = 40.5839
Neighbor list builds = 1000
Dangerous builds = 1000

unfix 				temp_rescale
unfix 				nve



# ------------------------- STEP 4a: COOLING 700 - 600  -------------------------

print "******************** Decreasing temperature from 700 K to 600 K ********************"
******************** Decreasing temperature from 700 K to 600 K ********************

neighbor			0.5 bin
neigh_modify		every 10 delay 0 check yes

fix					2 all npt temp 600.0 600.0 0.1 iso 1 1 1 drag 0.2
fix					temp_rescale all temp/rescale 100 600 600 0.1 0.9

timestep 			0.001

run 				11000
Per MPI rank memory allocation (min/avg/max) = 42.66 | 42.85 | 43.04 Mbytes
Step PotEng KinEng TotEng Temp Press Volume Density CPU 
   30000   -2198241.5    9891.8911   -2188349.6    708.58989   -193.56816     22157057   0.21839107            0 
   30100   -2199569.4    8600.3328     -2190969    616.07117    -10.56078     22140448    0.2185549    2.5721028 
   30200   -2201339.8    8514.5668   -2192825.2    609.92746   -103.86285     22121235   0.21874472    5.1497769 
   30300   -2202564.4    8464.0982   -2194100.3    606.31222   -151.74542     22093908   0.21901527    7.7306979 
   30400   -2203488.8    8437.2285   -2195051.6    604.38745   -105.81136     22048497   0.21946637    10.314932 
   30500   -2204390.3    8437.3288     -2195953    604.39463   -84.175122     21996884   0.21998131    12.902506 
   30600   -2205292.8    8438.4921   -2196854.3    604.47797   -39.129466     21939405   0.22055764      15.4938 
   30700   -2206215.7    8440.5503   -2197775.2     604.6254   -93.229745     21881035   0.22114601    18.090389 
   30800   -2207108.4    8439.0262   -2198669.3    604.51622   -3.5306897     21831602   0.22164674    20.688315 
   30900   -2208075.8    8446.6277   -2199629.2    605.06075   -1.6482209     21783734    0.2221338    23.289989 
   31000   -2208983.3    8441.3784     -2200542    604.68472   -3.5714176     21742538   0.22255467    25.897792 
   31100   -2209908.9    8441.2485   -2201467.7    604.67542   -27.750998     21692531   0.22306772    28.500912 
   31200   -2211088.7    8463.4428   -2202625.3    606.26527   -144.79968     21646062   0.22354659    31.109865 
   31300   -2212089.6    8448.2266   -2203641.4    605.17528   -9.6566467     21601744   0.22400522    33.645827 
   31400   -2213137.5    8452.2697   -2204685.2     605.4649   -137.07883     21550084    0.2245422    36.644522 
   31500   -2214378.1    8467.9767   -2205910.2    606.59005   -33.060178     21496950   0.22509721     39.66918 
   31600   -2215737.6    8478.5206   -2207259.1    607.34535    54.769401     21450375   0.22558596    42.385684 
   31700   -2216943.4    8465.4401     -2208478    606.40834   -150.26975     21417721    0.2259299    45.009992 
   31800   -2218004.5    8452.2688   -2209552.2    605.46484    -31.21836     21389708   0.22622578    47.638551 
   31900   -2219099.4    8454.9586   -2210644.5    605.65752   -4.7691959     21350036   0.22664615    50.270842 
   32000   -2220142.5    8450.2489   -2211692.3    605.32015   -11.555557     21309897   0.22707305    52.907318 
   32100   -2221330.7    8464.3193   -2212866.4    606.32806   -160.83735     21270202   0.22749682    55.531073 
   32200     -2222458     8458.252   -2213999.8    605.89344   -95.362505     21239925   0.22782111    58.156778 
   32300   -2223568.9    8456.1798   -2215112.8      605.745   -8.3028282     21219024   0.22804552    60.785115 
   32400   -2224451.7    8437.1897   -2216014.5    604.38467    8.8130728     21203044    0.2282174    63.415572 
   32500   -2225206.3    8427.2395     -2216779     603.6719    3.1542719     21196698   0.22828572    66.048035 
   32600   -2225904.2    8421.7772   -2217482.4    603.28062   -40.814183     21176127   0.22850748     68.68282 
   32700   -2226639.5    8426.8983   -2218212.6    603.64746   -58.521773     21143734   0.22885756    71.319552 
   32800   -2227504.7    8438.7993   -2219065.9    604.49997    -12.55543     21096533    0.2293696     73.95981 
   32900   -2228341.9    8435.9926   -2219905.9    604.29892   -46.342679     21052381   0.22985064     76.60359 
   33000   -2229162.7    8433.6156   -2220729.1    604.12865    28.745515     21016893   0.23023876    79.254982 
   33100   -2230024.7    8437.1158   -2221587.6    604.37938   -69.389659     20990236   0.23053116    81.897454 
   33200   -2230872.7    8436.9144   -2222435.8    604.36495   -73.023381     20957733   0.23088869     84.54345 
   33300     -2231650    8431.2797   -2223218.7    603.96132    122.53278     20925731   0.23124178    87.152449 
   33400   -2232320.6    8422.1645   -2223898.5    603.30837   -67.279455     20889588   0.23164187     89.74838 
   33500   -2232948.7     8417.989   -2224530.7    603.00926   -10.154295     20839075   0.23220337    92.342879 
   33600   -2233877.9    8443.8783     -2225434     604.8638   -17.764544     20778808   0.23287686    95.042146 
   33700   -2234833.8    8446.8316     -2226387    605.07535   -57.492358     20724507   0.23348703    98.127091 
   33800   -2235729.4    8442.0112   -2227287.4    604.73005   -15.321373     20693328   0.23383882    101.09566 
   33900   -2236515.3    8430.4004   -2228084.9    603.89833   -48.046541     20666564   0.23414165    103.91689 
   34000   -2237313.2    8431.4031   -2228881.8    603.97016     -49.1978     20646407   0.23437024    106.60533 
   34100   -2238141.2    8434.6346   -2229706.6    604.20164    5.0967104     20618217   0.23469068     109.2882 
   34200   -2238966.7    8433.6146   -2230533.1    604.12857   -138.94493     20588979   0.23502397    111.97006 
   34300   -2239732.3     8429.323     -2231303    603.82115   -21.279903     20563166   0.23531899    114.65758 
   34400   -2240481.4     8427.832   -2232053.6    603.71435    124.74813     20528539   0.23571592    117.34669 
   34500   -2241168.6    8422.8837   -2232745.7    603.35988   -48.217198     20496691   0.23608218    120.03883 
   34600   -2241997.1    8434.3763   -2233562.7    604.18314   -23.036782     20457477   0.23653471    122.73365 
   34700   -2242670.1    8422.2886   -2234247.8    603.31725   -31.082777     20429210   0.23686199    125.43218 
   34800   -2243493.3    8434.3582   -2235058.9    604.18184    60.943259     20389994   0.23731755    128.13227 
   34900   -2244334.2    8435.7055   -2235898.5    604.27835    -48.35688     20349360   0.23779143    130.83396 
   35000   -2245219.5    8440.0056   -2236779.5    604.58638   -95.600926     20313078   0.23821616    133.57224 
   35100   -2246029.2    8432.2975   -2237596.9    604.03422   -38.581285     20283427   0.23856439     136.2992 
   35200   -2246855.9    8433.4731   -2238422.5    604.11844   -77.106811     20255470   0.23889367    139.03145 
   35300     -2247611    8428.0223     -2239183    603.72798   -77.214664     20229599   0.23919918    141.76346 
   35400   -2248424.2    8434.0648   -2239990.1    604.16083   -247.48373     20207351   0.23946253    144.49773 
   35500   -2249201.8    8431.1023   -2240770.7    603.94861    46.457746     20169713   0.23990939    147.23467 
   35600   -2250008.3    8432.2675     -2241576    604.03208   -4.7131234     20143417   0.24022258    149.97398 
   35700   -2250752.1    8428.1233     -2242324    603.73521  -0.75874583     20133056   0.24034619    152.67459 
   35800   -2251314.6    8413.8564   -2242900.7    602.71323   -151.22939     20120051   0.24050155    155.61899 
   35900   -2251772.9    8403.2282   -2243369.6    601.95189   -22.575615     20089168   0.24087127    158.85405 
   36000   -2252296.3    8410.3132     -2243886    602.45941    89.814054     20056776   0.24126028    161.95607 
   36100     -2252810    8409.3979   -2244400.6    602.39385    70.979162     20011892    0.2418014    164.87645 
   36200   -2253375.9    8413.6719   -2244962.2    602.70001   -69.947458     19962561   0.24239892    167.79798 
   36300   -2254058.3    8424.1193   -2245634.2    603.44839   -90.019223     19917444   0.24294801    170.61799 
   36400   -2254800.6    8428.9557   -2246371.7    603.79484   -45.104968     19874086   0.24347803    173.37754 
   36500   -2255549.1    8429.2513   -2247119.9    603.81602    4.1927531     19843724   0.24385057     176.1401 
   36600   -2256254.7    8424.7946   -2247829.9    603.49677    19.691882     19816293   0.24418812    178.90043 
   36700   -2256945.4    8423.6393   -2248521.8    603.41401   -95.827334     19792124   0.24448631    181.66303 
   36800   -2257652.3    8423.7432   -2249228.5    603.42145    92.232476     19760612   0.24487619    184.42876 
   36900   -2258278.4    8417.5633   -2249860.8    602.97877   -92.498226     19744043   0.24508169    187.19688 
   37000   -2259111.1     8437.299   -2250673.8     604.3925   -97.969466     19712574   0.24547294    189.96933 
   37100   -2259728.6    8418.1372   -2251310.4    603.01988    112.26103     19687065   0.24579101    192.73896 
   37200   -2260377.1    8421.1328     -2251956    603.23446   -119.25454     19663330   0.24608769     195.5109 
   37300   -2260950.7    8413.6738     -2252537    602.70014   -126.18447     19627255      0.24654    198.28545 
   37400   -2261655.8     8424.318   -2253231.5    603.46263   -147.84948     19590819   0.24699852    201.06576 
   37500   -2262263.9    8416.1063   -2253847.8    602.87439   -95.974637     19551449   0.24749589    203.84685 
   37600   -2263019.1    8428.7996   -2254590.3    603.78366   -33.924763     19502581   0.24811606    206.63123 
   37700   -2263728.6     8426.682   -2255301.9    603.63197    27.229105     19468255   0.24855352    209.41859 
   37800   -2264468.2    8428.6195   -2256039.6    603.77076   -12.866921     19434963    0.2489793    212.20867 
   37900   -2265138.7    8421.4547   -2256717.2    603.25752    50.667823     19402254   0.24939904    215.07642 
   38000   -2265849.7    8425.6552     -2257424    603.55842   -55.117192     19371735   0.24979195    218.33771 
   38100   -2266634.8     8432.933   -2258201.8    604.07975   -78.523251     19330553    0.2503241    221.48121 
   38200     -2267453    8435.1057   -2259017.9    604.23539    -28.92885     19281366   0.25096269    224.45635 
   38300   -2268179.1    8426.0313   -2259753.1    603.58536   -74.219581     19245418   0.25143145    227.43541 
   38400   -2268976.1    8431.5764   -2260544.5    603.98257   -81.094258     19209979    0.2518953    230.41815 
   38500   -2269662.9    8421.6828   -2261241.2    603.27386    43.946008     19178718   0.25230588      233.395 
   38600   -2270517.1    8436.4747   -2262080.6    604.33345    -9.794776     19144789   0.25275303    236.36966 
   38700   -2271301.6    8430.9273   -2262870.7    603.93608   -62.230331     19109628   0.25321808    239.34565 
   38800   -2272114.7    8433.8965   -2263680.8    604.14877     -159.392     19074468   0.25368484    242.32473 
   38900   -2272887.8    8430.4136   -2264457.3    603.89928   -67.171095     19034858   0.25421275    245.30647 
   39000   -2273627.5    8427.5377     -2265200    603.69327   -131.11599     18997797   0.25470866    248.26778 
   39100   -2274416.8    8432.9523   -2265983.8    604.08113   -67.807288     18955921   0.25527134    251.07431 
   39200   -2275277.1    8438.5569   -2266838.5    604.48261   -2.9297178     18913572   0.25584291    253.88534 
   39300   -2276144.7    8439.2525   -2267705.4    604.53243    13.586928     18882647   0.25626193    256.70191 
   39400   -2276969.7    8433.8984   -2268535.8     604.1489   -6.5620955     18848743   0.25672287    259.52614 
   39500   -2277888.2    8442.3902   -2269445.8     604.7572   -98.631456     18809882   0.25725326    262.35295 
   39600   -2278729.8    8436.0807   -2270293.7    604.30523   -16.105381     18782515   0.25762808    265.18461 
   39700   -2279518.7    8431.1573   -2271087.6    603.95255   -50.846628     18762251   0.25790633    268.02247 
   39800   -2280521.4    8450.1601   -2272071.2    605.31378   -61.832474     18736366   0.25826264    270.86353 
   39900     -2281455    8443.0752   -2273011.9    604.80627   -51.240132     18702145   0.25873521    273.61345 
   40000   -2282350.5    8439.8032   -2273910.7    604.57188   -58.675188     18670955   0.25916743    276.82777 
   40100   -2283300.8    8444.2478   -2274856.5    604.89027    60.891188     18640900   0.25958529    280.13641 
   40200   -2284348.5    8453.0462   -2275895.5    605.52052    25.433437     18604868   0.26008802    283.18349 
   40300     -2285369    8450.6751   -2276918.3    605.35067    96.760077     18563779   0.26066371    286.20615 
   40400   -2286314.1    8443.5095   -2277870.6    604.83738   -91.603232     18544169   0.26093935    289.18106 
   40500   -2287212.6    8439.6227     -2278773    604.55896   -127.92777     18518653   0.26129889    292.03646 
   40600     -2287976    8427.9512   -2279548.1    603.72289   -164.45085     18493070   0.26166036    294.89576 
   40700   -2288742.8    8427.4601   -2280315.3    603.68771   -107.66526     18453530   0.26222102    297.76033 
   40800     -2289603    8436.1538   -2281166.9    604.31046   -119.26463     18411524   0.26281927    300.62807 
   40900   -2290358.7    8426.7591   -2281931.9    603.63749   -72.417684     18375123   0.26333992    303.50013 
   41000     -2291217    8435.8561   -2282781.2    604.28914   -104.95834     18332728    0.2639489    306.37855 
Loop time of 306.379 on 2 procs for 11000 steps with 108000 atoms

Performance: 3.102 ns/day, 7.737 hours/ns, 35.903 timesteps/s
99.5% CPU use with 2 MPI tasks x 1 OpenMP threads

MPI task timing breakdown:
Section |  min time  |  avg time  |  max time  |%varavg| %total
---------------------------------------------------------------
Pair    | 232.43     | 235.94     | 239.45     |  22.8 | 77.01
Neigh   | 37.555     | 38.028     | 38.501     |   7.7 | 12.41
Comm    | 3.0892     | 7.0671     | 11.045     | 149.6 |  2.31
Output  | 9.5044     | 9.5049     | 9.5054     |   0.0 |  3.10
Modify  | 14.597     | 14.602     | 14.606     |   0.1 |  4.77
Other   |            | 1.235      |            |       |  0.40

Nlocal:    54000 ave 54112 max 53888 min
Histogram: 1 0 0 0 0 0 0 0 0 1
Nghost:    19102 ave 19246 max 18958 min
Histogram: 1 0 0 0 0 0 0 0 0 1
Neighs:    2.49782e+06 ave 2.52416e+06 max 2.47148e+06 min
Histogram: 1 0 0 0 0 0 0 0 0 1

Total # of neighbors = 4995639
Ave neighs/atom = 46.2559
Neighbor list builds = 1100
Dangerous builds = 1100

unfix 				temp_rescale
unfix 				2



# ------------------------- STEP 4b: COOLING 600 - 400 -------------------------

print "******************** Decreasing temperature from 600 K to 400 K ********************"
******************** Decreasing temperature from 600 K to 400 K ********************

neighbor			0.5 bin
neigh_modify		every 10 delay 0 check yes

fix					3 all npt temp 400.0 400.0 0.1 iso 1 1 1 drag 0.2
fix					temp_rescale all temp/rescale 100 400 400 0.1 0.9

timestep 			0.001

run 				11000
Per MPI rank memory allocation (min/avg/max) = 44.19 | 44.19 | 44.19 Mbytes
Step PotEng KinEng TotEng Temp Press Volume Density CPU 
   41000     -2291217    8435.8561   -2282781.2    604.28914   -104.95834     18332728    0.2639489            0 
   41100   -2292508.2    5914.3604   -2286593.9    423.66581   -127.07928     18294462   0.26450099    2.8748291 
   41200   -2294878.3    5776.9038   -2289101.4    413.81932   -51.316092     18240145   0.26528865     5.757535 
   41300   -2296471.3    5704.9351   -2290766.3    408.66396   -81.916421     18207122   0.26576981    8.6453509 
   41400   -2297662.2    5669.5697   -2291992.6    406.13061   -50.543439     18172663   0.26627376    11.537176 
   41500   -2298700.2    5659.3475   -2293040.8    405.39836   -139.28852     18135627   0.26681754    14.435133 
   41600   -2299591.5    5647.7426   -2293943.7    404.56706   -71.668488     18086731   0.26753887      17.3352 
   41700   -2300596.2    5658.6989   -2294937.5     405.3519   -136.72647     18033729   0.26832517    20.276299 
   41800   -2301462.7    5646.5194   -2295816.2    404.47944    37.570305     17991162   0.26896003    23.221167 
   41900   -2302377.7    5653.3102   -2296724.4    404.96589   -82.476632     17957251   0.26946794    26.136525 
   42000     -2303135    5639.4497   -2297495.6    403.97301   -21.365255     17926031   0.26993725     29.28247 
   42100   -2303794.4    5629.6514   -2298164.7    403.27113   -8.2414445     17886100   0.27053988    32.747788 
   42200   -2304511.1    5635.3079   -2298875.8    403.67632   -23.597553     17848728   0.27110635    35.940231 
   42300   -2305225.7    5636.1394   -2299589.6    403.73588   -187.48299     17819184   0.27155584    38.946325 
   42400     -2305980    5640.0848   -2300339.9    404.01851   -143.97644     17781988   0.27212388     41.89815 
   42500   -2306539.2    5623.1008   -2300916.1    402.80188   -113.53536     17752058   0.27258267    44.851303 
   42600   -2307124.1    5624.8031   -2301499.3    402.92383   -144.83065     17721327   0.27305537    47.807099 
   42700   -2307804.7    5634.6187   -2302170.1    403.62695    3.9905377     17684573   0.27362286    50.766334 
   42800   -2308429.6    5629.3412   -2302800.3    403.24891   -12.216063     17649896   0.27416045    53.727549 
   42900   -2309192.8    5641.2718   -2303551.6    404.10353   -52.586248     17607040   0.27482776    56.691978 
   43000   -2309943.1    5640.3496   -2304302.7    404.03747   -109.46576     17559845   0.27556641    59.661937 
   43100   -2310752.3    5644.2809     -2305108    404.31909   -45.515866     17514880   0.27627385       62.627 
   43200   -2311640.8    5650.4774   -2305990.3    404.76296   -120.81224     17469733   0.27698783     65.59623 
   43300   -2312333.5    5632.9251   -2306700.6    403.50564   -76.240409     17427718    0.2776556    68.569663 
   43400   -2313177.3    5645.6949   -2307531.6    404.42038    -122.1856     17382754   0.27837381    71.548713 
   43500   -2314221.7    5664.7944   -2308556.9    405.78854   -96.998651     17338532   0.27908381    74.534705 
   43600   -2315266.5    5664.1262   -2309602.4    405.74068   -80.756188     17283336   0.27997507    77.524491 
   43700   -2316321.6    5663.7654   -2310657.8    405.71483    -16.73892     17237936   0.28071247     80.52096 
   43800   -2317313.3    5658.2789     -2311655    405.32181   -138.35059     17207389   0.28121078    83.523791 
   43900   -2318164.4    5645.9111   -2312518.5    404.43587   -73.420133     17192318    0.2814573    86.470393 
   44000   -2319153.7    5657.8972   -2313495.8    405.29447   -12.796692     17163667   0.28192713    89.770369 
   44100   -2320256.9    5668.9527     -2314588    406.08641   -72.332787     17127670   0.28251965    93.119413 
   44200   -2321341.6    5666.8871   -2315674.7    405.93845   -114.81007     17089687   0.28314758    96.236155 
   44300   -2322248.2    5651.7007   -2316596.5    404.85059   -40.004785     17062313   0.28360185     99.26102 
   44400   -2323100.2     5646.982   -2317453.2    404.51258   -82.433988     17032927   0.28409112    102.28842 
   44500   -2323985.1    5649.8563   -2318335.3    404.71848   -98.600511     16992894    0.2847604    105.29996 
   44600   -2324791.6    5643.2161   -2319148.4    404.24281   -48.133423     16959834   0.28531549    108.31141 
   44700   -2325626.9    5645.6088   -2319981.3    404.41421    -101.7909     16921386   0.28596378    111.32801 
   44800   -2326545.8    5652.3505   -2320893.5    404.89714    47.862073     16868810   0.28685506    114.34782 
   44900   -2327395.9      5647.16   -2321748.7    404.52533   -65.350328     16831428   0.28749215    117.37144 
   45000   -2328288.9    5650.1211   -2322638.8    404.73744    21.072821     16796512   0.28808978    120.39915 
   45100   -2329125.8    5645.1833   -2323480.6    404.38373   -55.077212     16769663   0.28855102    123.41076 
   45200   -2329872.5    5637.0836   -2324235.4    403.80352   -12.747267     16738461   0.28908891    126.42666 
   45300   -2330599.3    5635.9886   -2324963.3    403.72508   -114.07554     16700710   0.28974238    129.44587 
   45400   -2331373.9         5640   -2325733.9    404.01243   -144.99126     16663228   0.29039413    132.46915 
   45500   -2332333.8    5657.5127   -2326676.3    405.26693   -54.671588     16611535   0.29129778    135.49696 
   45600   -2333346.3     5660.721   -2327685.6    405.49675    19.384973     16562974   0.29215184     138.5277 
   45700   -2334328.2     5657.857   -2328670.3    405.29159   -28.424044     16523180   0.29285545    141.56271 
   45800   -2335231.9    5650.4087   -2329581.5    404.75804   -61.850782     16486982   0.29349843    144.60303 
   45900   -2336078.8    5645.4539   -2330433.3    404.40312   -70.171235     16456934   0.29403431    147.62222 
   46000   -2336907.9    5644.0902   -2331263.8    404.30543    81.337213     16421069   0.29467652    151.23587 
   46100   -2337668.7    5638.5362   -2332030.1    403.90758   -119.40348     16401817   0.29502239     154.7083 
   46200   -2338417.3    5638.0266   -2332779.2    403.87107   -133.29644     16384986   0.29532546    157.94699 
   46300   -2339127.8    5634.9182   -2333492.9     403.6484    -111.6492     16353384   0.29589615    161.18948 
   46400   -2339989.2    5647.5645   -2334341.6     404.5543   -33.556946     16303497   0.29680156    164.41795 
   46500   -2340982.3    5659.4003   -2335322.9    405.40214   -167.33368     16258600   0.29762116    167.49485 
   46600   -2341819.4    5644.8935   -2336174.5    404.36297   -52.740711     16223578   0.29826365    170.57053 
   46700   -2342684.1    5648.5127   -2337035.6    404.62223   -66.486489     16191350   0.29885731    173.64881 
   46800   -2343607.6     5653.414   -2337954.2    404.97332   -144.23303     16150987   0.29960419    176.73295 
   46900   -2344617.6    5661.1288   -2338956.5    405.52596   -178.11311     16100617   0.30054149    179.82169 
   47000   -2345666.6    5664.0464   -2340002.6    405.73496   -67.515856     16041198   0.30165474    182.91773 
   47100   -2346684.6     5660.553   -2341024.1    405.48472   -26.936701     15991337   0.30259531    186.01841 
   47200     -2347790    5668.6084   -2342121.4    406.06175   -96.932448     15950902   0.30336237    189.15817 
   47300   -2348798.9    5660.4229   -2343138.5    405.47539   -103.15923     15911357   0.30411632    192.30379 
   47400   -2349756.9    5655.2359   -2344101.7    405.10383   -106.39104     15876602   0.30478205     195.4582 
   47500   -2350821.1    5663.9149   -2345157.2    405.72554   -33.655424     15828944   0.30569969    198.61366 
   47600   -2351877.7    5663.2238   -2346214.4    405.67603   -159.02668     15788597   0.30648091    201.77389 
   47700   -2352958.6     5666.261   -2347292.3     405.8936   -60.563098     15752625   0.30718077    204.93844 
   47800   -2354002.7    5662.8833   -2348339.8    405.65165   -89.097373     15713891   0.30793795    208.15597 
   47900   -2355144.5     5672.107   -2349472.4    406.31237   -50.206218     15669924   0.30880197    211.98098 
   48000   -2356238.8     5667.366   -2350571.4    405.97275   -211.29063     15625460   0.30968071    215.44391 
   48100   -2357364.4    5669.8816   -2351694.5    406.15295   -106.47906     15578228   0.31061962    218.60773 
   48200     -2358396    5659.6009   -2352736.4    405.41651    6.5670709     15522656   0.31173166    221.77759 
   48300   -2359522.3    5670.0788   -2353852.2    406.16708   -226.84458     15489910   0.31239068    224.95472 
   48400   -2360660.9    5670.8988     -2354990    406.22582   -106.07639     15451448   0.31316827    228.13397 
   48500   -2361662.6     5659.423   -2356003.1    405.40377   -30.191795     15418172   0.31384417    231.31923 
   48600   -2362805.6    5670.7268   -2357134.9     406.2135   -95.826854     15373272    0.3147608    234.50684 
   48700   -2363899.6    5667.1817   -2358232.4    405.95955   -167.47303     15331234   0.31562387    237.69893 
   48800   -2364915.1    5659.3463   -2359255.7    405.39828   -47.147751     15291660   0.31644069    240.89438 
   48900     -2365951    5661.4466   -2360289.6    405.54873   -131.87377     15262786   0.31703933    244.09397 
   49000   -2366908.1    5654.2851   -2361253.8    405.03572   -71.226745     15234252   0.31763316    247.30034 
   49100   -2367901.1    5658.6224   -2362242.5    405.34642   -5.7419778     15204703   0.31825044     250.5035 
   49200   -2368927.4    5660.8546   -2363266.6    405.50632   -37.237689     15164396   0.31909634    253.71683 
   49300   -2369867.1    5653.7135   -2364213.4    404.99478   -147.73756     15132485   0.31976926    256.93282 
   49400   -2370870.7    5659.3048   -2365211.4     405.3953    -33.54253     15089320     0.320684    260.15346 
   49500   -2371800.7    5653.2543   -2366147.5    404.96188    -44.37769     15037710   0.32178459    263.38027 
   49600   -2372819.3    5661.3676   -2367157.9    405.54307   -119.08651     14990887   0.32278967     266.5797 
   49700   -2374026.3    5677.3554     -2368349    406.68833   -137.74828     14937497   0.32394339    270.21367 
   49800   -2375264.6    5679.6388     -2369585     406.8519    51.093668     14889197   0.32499424    273.95613 
   49900     -2376474    5676.2887   -2370797.7    406.61192   -58.657793     14856086   0.32571859    277.21891 
   50000   -2377716.8    5679.5983   -2372037.2      406.849    -159.0321     14824725   0.32640762    280.47265 
   50100     -2378731    5659.5283   -2373071.5    405.41131    -121.3848     14792558   0.32711741    283.70753 
   50200   -2379941.3    5676.5436   -2374264.7    406.63017   -9.8156457     14762474   0.32778403    286.95175 
   50300   -2380984.5    5663.1558   -2375321.3    405.67116   -59.010391     14725701   0.32860259    290.20449 
   50400   -2382184.5    5676.5497   -2376507.9    406.63062   -199.68409     14677689   0.32967747    293.46354 
   50500   -2383410.3     5678.298     -2377732    406.75585   -157.13509     14628297   0.33079062    296.73185 
   50600     -2384532    5670.7816   -2378861.2    406.21743   -154.97847     14601204    0.3314044    300.00651 
   50700   -2385531.3    5658.5652   -2379872.7    405.34232   -119.38455     14568299   0.33215293    303.28853 
   50800   -2386610.3    5665.6995   -2380944.6    405.85338   -70.156432     14538140   0.33284198    306.57707 
   50900   -2387639.5    5662.0569   -2381977.5    405.59244   -177.84662     14505094   0.33360029       309.87 
   51000   -2388755.8    5668.3553   -2383087.4    406.04362   -114.89072     14458091   0.33468482    313.17405 
   51100   -2390105.8     5689.579   -2384416.3    407.56395    -71.72306     14412317   0.33574778    316.46457 
   51200   -2391335.6    5679.1863   -2385656.4    406.81948   -90.346535     14372802   0.33667085    319.76484 
   51300   -2392485.1    5671.7271   -2386813.4    406.28515   -219.90316     14336143   0.33753174    323.07167 
   51400   -2393826.6    5687.7572   -2388138.8    407.43344   -122.58065     14286455   0.33870568    326.36858 
   51500     -2395123    5684.2576   -2389438.7    407.18276   -11.340454     14248213   0.33961475    330.03933 
   51600   -2396322.6    5675.1083   -2390647.5    406.52736   -19.393169     14219604   0.34029803    333.91871 
   51700   -2397459.6    5669.2972   -2391790.3    406.11109   -123.94369     14186345   0.34109586    337.48529 
   51800   -2398536.8    5665.5067   -2392871.3    405.83957   -194.52266     14154858   0.34185459    340.83389 
   51900   -2399681.4     5670.425   -2394010.9    406.19188   -135.61236     14109536   0.34295269    344.18507 
   52000   -2400818.1    5670.2338   -2395147.9    406.17818   -222.24244     14064843   0.34404248    347.56543 
Loop time of 347.565 on 2 procs for 11000 steps with 108000 atoms

Performance: 2.734 ns/day, 8.777 hours/ns, 31.649 timesteps/s
99.5% CPU use with 2 MPI tasks x 1 OpenMP threads

MPI task timing breakdown:
Section |  min time  |  avg time  |  max time  |%varavg| %total
---------------------------------------------------------------
Pair    | 265.39     | 269.61     | 273.83     |  25.7 | 77.57
Neigh   | 43.903     | 44.558     | 45.212     |   9.8 | 12.82
Comm    | 3.1649     | 8.0728     | 12.981     | 172.7 |  2.32
Output  | 9.4934     | 9.494      | 9.4945     |   0.0 |  2.73
Modify  | 14.545     | 14.583     | 14.621     |   1.0 |  4.20
Other   |            | 1.245      |            |       |  0.36

Nlocal:    54000 ave 54531 max 53469 min
Histogram: 1 0 0 0 0 0 0 0 0 1
Nghost:    20946.5 ave 21004 max 20889 min
Histogram: 1 0 0 0 0 0 0 0 0 1
Neighs:    2.90386e+06 ave 2.96113e+06 max 2.84658e+06 min
Histogram: 1 0 0 0 0 0 0 0 0 1

Total # of neighbors = 5807711
Ave neighs/atom = 53.7751
Neighbor list builds = 1100
Dangerous builds = 1100

unfix 				temp_rescale
unfix 				3



# ------------------------- STEP 4c: COOLING 400 - 300 -------------------------

print "******************** Decreasing temperature from 400 K to 300 K ********************"
******************** Decreasing temperature from 400 K to 300 K ********************

neighbor			0.5 bin
neigh_modify		every 10 delay 0 check yes

fix					4 all npt temp 300.0 300.0 0.1 iso 1 1 1 drag 0.2
fix					temp_rescale all temp/rescale 100 300 300 0.1 0.9

timestep 			0.001

run 				11000	# 10000 or 15000
Per MPI rank memory allocation (min/avg/max) = 45.73 | 45.93 | 46.12 Mbytes
Step PotEng KinEng TotEng Temp Press Volume Density CPU 
   52000   -2400818.1    5670.2338   -2395147.9    406.17818   -222.24244     14064843   0.34404248            0 
   52100   -2402206.2    4417.1545   -2397789.1    316.41584   -262.17527     14017219   0.34521136     3.389401 
   52200   -2404198.9    4350.0198   -2399848.9    311.60675   -369.43658     13952310   0.34681737    6.7879851 
   52300   -2406030.1    4334.6623   -2401695.4    310.50664   -374.64474     13884371   0.34851441     10.19623 
   52400   -2407693.8    4318.8856   -2403374.9     309.3765   -385.99723     13811774   0.35034627    13.613687 
   52500   -2409065.6    4293.9984   -2404771.6    307.59375   -292.05556     13751992   0.35186927    17.040383 
   52600   -2410522.4    4301.0776   -2406221.4    308.10086   -269.20635     13690526   0.35344904    20.474858 
   52700   -2411947.7    4299.3068   -2407648.4    307.97401   -141.73746     13634313    0.3549063    23.919176 
   52800   -2413259.9    4290.0834   -2408969.8    307.31331   -339.19219     13591123   0.35603412    27.376028 
   52900   -2414459.5    4280.7608   -2410178.8    306.64549   -457.30564     13557470   0.35691786    30.867248 
   53000     -2415722    4287.2307   -2411434.8    307.10895   -324.71949     13512579   0.35810362     34.33771 
   53100     -2416903    4279.8108   -2412623.2    306.57744   -300.35454     13454590   0.35964703    37.737729 
   53200     -2418034    4274.7938   -2413759.2    306.21806   -322.55492     13394202   0.36126852    41.321267 
   53300   -2419327.5    4289.3756   -2415038.1     307.2626   -318.46877     13330251   0.36300166    45.435557 
   53400   -2420633.3    4290.9286   -2416342.4    307.37385   -308.53214     13267689   0.36471335    49.052268 
   53500   -2422031.8    4297.9458   -2417733.8    307.87651   -296.43924     13206422   0.36640532    52.563109 
   53600     -2423410    4296.0204     -2419114     307.7386   -280.67237     13145043   0.36811622    56.071871 
   53700   -2424829.6    4299.4211   -2420530.2     307.9822   -327.69679     13092066    0.3696058    59.581531 
   53800   -2426238.5    4298.2789   -2421940.2    307.90038   -245.06926     13047225   0.37087607     63.10006 
   53900   -2427538.4     4289.674   -2423248.7    307.28398     -356.082     13007161    0.3720184    66.623434 
   54000   -2428890.2    4294.5814   -2424595.6    307.63551   -210.97149     12956625   0.37346943    70.147018 
   54100   -2430217.7    4292.9264   -2425924.8    307.51696   -275.91791     12905191   0.37495792    73.641891 
   54200   -2431659.8    4301.3802   -2427358.4    308.12253    -390.0339     12843038   0.37677248    77.145209 
   54300   -2433120.4    4303.3959     -2428817    308.26692    -328.6585     12785777   0.37845987    80.657574 
   54400   -2434576.1    4303.3104   -2430272.8     308.2608   -464.00194     12731696   0.38006746    84.180751 
   54500   -2435880.6    4289.3271   -2431591.3    307.25913   -345.92723     12677856   0.38168151     87.71788 
   54600   -2437241.1    4293.7017   -2432947.4     307.5725   -372.97981     12629702   0.38313679    91.261709 
   54700   -2438660.3      4300.84   -2434359.5    308.08384   -371.36904     12592614   0.38426519    94.816352 
   54800   -2440076.2    4298.8181   -2435777.4      307.939   -294.08252     12548615   0.38561256    98.356297 
   54900   -2441469.4    4297.2689   -2437172.1    307.82802   -204.10524     12513022   0.38670943    102.22232 
   55000   -2443006.2    4310.7976   -2438695.4    308.79713   -313.20651     12469991   0.38804385    106.44314 
   55100   -2444540.3    4310.1535   -2440230.1      308.751    -443.6712     12425076   0.38944657    110.22941 
   55200   -2446012.5     4303.317   -2441709.2    308.26128    -304.4442     12368149    0.3912391    114.02855 
   55300   -2447558.5    4310.5889   -2443247.9    308.78219   -284.21276     12313060    0.3929895    117.66281 
   55400   -2449014.6    4302.7095   -2444711.9    308.21776   -446.90546     12263573   0.39457535    121.31751 
   55500   -2450484.5    4304.4496   -2446180.1    308.34241   -279.62109     12211406   0.39626095    124.98078 
   55600   -2452055.7    4312.9994   -2447742.7    308.95486   -303.32541     12164413   0.39779176    128.65214 
   55700   -2453622.7    4313.0667   -2449309.7    308.95967   -268.38299     12112142   0.39950848    132.33307 
   55800   -2455180.5    4311.8466   -2450868.7    308.87227   -208.45451     12045888   0.40170583    136.02534 
   55900   -2456777.6    4314.4319   -2452463.2    309.05747   -284.54667     11987244   0.40367105    139.72673 
   56000   -2458352.7    4313.5977   -2454039.1    308.99772   -356.58063     11936381   0.40539116    143.43903 
   56100   -2459950.1    4314.9345   -2455635.2    309.09347   -392.31428     11894125   0.40683139    147.13359 
   56200   -2461461.4    4307.7187   -2457153.7    308.57658   -200.63701     11849362   0.40836826    150.83399 
   56300   -2462952.1    4305.5619   -2458646.5    308.42208   -379.98852     11805036   0.40990161    154.54485 
   56400   -2464362.7    4298.1656   -2460064.5    307.89226   -280.34376     11757702    0.4115518    158.25297 
   56500   -2465778.4    4298.6148   -2461479.8    307.92444   -528.64517     11704552   0.41342065     162.2433 
   56600   -2467326.4    4310.5644   -2463015.8    308.78042   -271.69158     11648233   0.41541953    166.58412 
   56700     -2468864    4309.2138   -2464554.8    308.68368    -374.8564     11581236    0.4178227    170.57819 
   56800   -2470632.3     4328.975   -2466303.3    310.09924   -314.45417     11513598   0.42027726    174.58123 
   56900   -2472416.4    4331.0998   -2468085.3    310.25145   -402.47486     11452340   0.42252531    178.58224 
   57000   -2474221.4    4332.2338   -2469889.1    310.33268   -476.17269     11386934   0.42495226    182.59553 
   57100   -2476010.4    4330.2856   -2471680.1    310.19313   -402.55488     11331760   0.42702136    186.58116 
   57200   -2477873.4    4337.2838   -2473536.2    310.69443   -475.25157     11286955   0.42871645    190.58243 
   57300   -2479812.7     4344.247   -2475468.4    311.19323   -486.47957     11236705   0.43063366    194.59846 
   57400   -2481519.5    4325.1053   -2477194.4    309.82204   -423.69665     11197089   0.43215725    198.61004 
   57500     -2483421    4340.4957   -2479080.5    310.92451   -459.27945     11134936   0.43456947    202.41817 
   57600   -2485262.7     4336.232   -2480926.5    310.61909   -258.33765     11081479   0.43666584    206.22526 
   57700   -2486977.9    4324.1822   -2482653.7    309.75592   -385.23316     11036345   0.43845162    209.85227 
   57800   -2488658.8    4321.1438   -2484337.7    309.53827   -570.91527     10986821   0.44042799    213.48468 
   57900     -2490252      4313.64   -2485938.3    309.00074   -471.24756     10940097   0.44230899    217.14784 
   58000   -2491878.7    4317.5339   -2487561.2    309.27968   -598.32721     10897722    0.4440289    221.03277 
   58100   -2493552.9     4320.518   -2489232.4    309.49344   -407.81671     10834928   0.44660228    225.23486 
   58200   -2495489.6    4343.9521   -2491145.6    311.17211   -556.33923     10767775   0.44938751    229.18362 
   58300   -2497366.3     4337.303     -2493029    310.69581   -441.88231     10698936   0.45227893    233.08428 
   58400   -2499305.6    4343.4414   -2494962.2    311.13552   -462.95623     10642278    0.4546868      236.945 
   58500   -2501336.2    4351.0668   -2496985.1    311.68175    -466.2322     10585417   0.45712923    240.69847 
   58600   -2503462.4    4359.1098   -2499103.3     312.2579   -473.69786     10522731   0.45985242    244.60086 
   58700   -2505511.2    4352.6167   -2501158.6    311.79278    -468.6878     10467320   0.46228673    248.58738 
   58800   -2507441.9    4342.2511   -2503099.7    311.05025   -359.02089     10415858   0.46457081    252.58669 
   58900   -2509334.4    4339.5753   -2504994.8    310.85858   -440.99953     10366504   0.46678255    256.59422 
   59000   -2511091.1     4327.368   -2506763.7    309.98413   -341.00442     10326648   0.46858415    260.61325 
   59100   -2513106.6    4348.7229   -2508757.9    311.51385   -331.06978     10275136   0.47093326    264.51306 
   59200   -2515096.3    4347.3378     -2510749    311.41463   -406.26982     10224397   0.47327031    268.40628 
   59300   -2517063.4    4345.7404   -2512717.6    311.30021   -389.40189     10173971     0.475616    272.30447 
   59400   -2519037.7     4346.541   -2514691.1    311.35755   -534.67077     10116077   0.47833794    276.21434 
   59500   -2520906.9    4336.7505   -2516570.1    310.65623   -445.91262     10061309   0.48094173    280.14481 
   59600   -2522840.6    4341.6211     -2518499    311.00512   -587.19974    9998416.7   0.48396697    284.94302 
   59700   -2524755.9    4340.7952   -2520415.1    310.94596   -447.58923    9940681.7   0.48677782    289.33638 
[...]
   60700   -2544949.4    4359.1668   -2540590.2    312.26199   -548.58551    9376479.4   0.51606826    330.30449 
   60800   -2547111.1    4362.2477   -2542748.9    312.48268   -641.26956    9308690.3   0.51982645      334.427 
   60900   -2549258.4    4360.4629   -2544897.9    312.35483   -792.75249      9237590   0.52382747    338.55292 
   61000   -2551639.4    4381.5853   -2547257.8     313.8679   -767.40975    9169506.3    0.5277169    343.24542 
   61100   -2554167.1    4392.8765   -2549774.2    314.67673   -728.37009    9111426.9   0.53108075    347.99043 
   61200   -2556532.8    4378.2367   -2552154.5    313.62803   -774.49512    9049216.7   0.53473174    352.44375 
   61300   -2559070.4    4393.6169   -2554676.8    314.72976   -804.41107    8983316.7   0.53865444    356.82719 
   61400   -2561659.8    4397.1292   -2557262.7    314.98136   -755.14054    8914723.9   0.54279902     361.0557 
   61500   -2564089.8    4382.9529   -2559706.8    313.96586   -664.02768    8852787.2    0.5465966    365.30293 
   61600   -2566577.5    4389.0124   -2562188.5    314.39993   -766.80321    8790568.3   0.55046537    369.56238 
   61700   -2568804.9    4366.0673   -2564438.8    312.75629   -642.82264    8728659.2   0.55436961    373.83572 
   61800   -2571112.2    4370.9325   -2566741.3     313.1048   -530.90761    8662744.3   0.55858781    378.12791 
   61900   -2573173.8    4351.8598     -2568822    311.73856   -772.97065    8606568.8   0.56223375    382.43433 
   62000   -2575363.4    4363.1184   -2571000.2    312.54505   -804.52944    8548495.3   0.56605323    386.75521 
   62100   -2577610.3    4368.9202   -2573241.4    312.96065   -990.76035    8483744.9   0.57037352    391.00848 
   62200   -2579867.6    4367.4942   -2575500.1    312.85851   -1000.0845    8417316.2   0.57487485    395.28611 
   62300   -2582286.2    4382.8402   -2577903.4    313.95779   -871.86058    8356668.6   0.57904694    399.49973 
   62400   -2584662.3    4379.9063   -2580282.4    313.74763   -685.41399    8298844.9   0.58308156    404.54129 
   62500     -2587157    4388.0756   -2582768.9    314.33282   -854.80101    8237616.4   0.58741548     409.2626 
   62600   -2589617.6    4385.9535   -2585231.7    314.18081   -712.89342    8182185.9   0.59139495    413.89238 
   62700   -2592116.9    4389.3159   -2587727.6    314.42166    -807.6565    8123142.1   0.59569356     418.3083 
   62800   -2594467.5    4376.0393   -2590091.5    313.47062   -721.78069    8067470.4    0.5998043    422.70949 
   62900   -2597044.2    4395.9332   -2592648.3    314.89569   -1005.8494    8007469.7   0.60429869    427.13622 
   63000   -2600131.7    4439.3083   -2595692.4    318.00279   -1193.5706    7928260.4   0.61033608    431.58691 
Loop time of 431.587 on 2 procs for 11000 steps with 108000 atoms

Performance: 2.202 ns/day, 10.899 hours/ns, 25.487 timesteps/s
99.5% CPU use with 2 MPI tasks x 1 OpenMP threads

MPI task timing breakdown:
Section |  min time  |  avg time  |  max time  |%varavg| %total
---------------------------------------------------------------
Pair    | 326.49     | 333.84     | 341.18     |  40.2 | 77.35
Neigh   | 58.04      | 59.284     | 60.529     |  16.2 | 13.74
Comm    | 4.3033     | 12.96      | 21.617     | 240.5 |  3.00
Output  | 9.5338     | 9.5344     | 9.5349     |   0.0 |  2.21
Modify  | 14.575     | 14.643     | 14.711     |   1.8 |  3.39
Other   |            | 1.329      |            |       |  0.31

Nlocal:    54000 ave 54704 max 53296 min
Histogram: 1 0 0 0 0 0 0 0 0 1
Nghost:    25745 ave 26086 max 25404 min
Histogram: 1 0 0 0 0 0 0 0 0 1
Neighs:    3.79984e+06 ave 3.88014e+06 max 3.71955e+06 min
Histogram: 1 0 0 0 0 0 0 0 0 1

Total # of neighbors = 7599689
Ave neighs/atom = 70.3675
Neighbor list builds = 1100
Dangerous builds = 1100

unfix				temp_rescale
unfix 				4



# ------------------------- STEP 5: EQUILIBRATION 2 -------------------------

print "******************** Equilibration at 300 K ********************"
******************** Equilibration at 300 K ********************

fix					equilibration2 all nve
fix					temp_rescale all temp/rescale 100 300 300 0.1 0.9

timestep 			0.001

run					10000
Per MPI rank memory allocation (min/avg/max) = 49.22 | 49.41 | 49.61 Mbytes
Step PotEng KinEng TotEng Temp Press Volume Density CPU 
   63000   -2600131.7    4439.3083   -2595692.4    318.00279   -1193.5706    7928260.4   0.61033608            0 
   63100   -2602786.9    4466.4999   -2598320.4    319.95062   -1250.4828    7928260.4   0.61033608    4.3539951 
   63200   -2605563.8    4479.9467   -2601083.9    320.91386   -703.93418    7928260.4   0.61033608    8.7297161 
   63300     -2608302    4478.8591   -2603823.1    320.83595   -691.88119    7928260.4   0.61033608    13.126246 
   63400   -2610769.6    4453.2124   -2606316.4    318.99879   -1169.3192    7928260.4   0.61033608    17.546243 
   63500     -2613400    4466.0495     -2608934    319.91835   -1139.6905    7928260.4   0.61033608    21.980771 
   63600   -2616212.1    4484.2355   -2611727.8    321.22108     -952.916    7928260.4   0.61033608    26.427307 
   63700   -2618990.1    4482.9558   -2614507.1    321.12941   -1169.2183    7928260.4   0.61033608    31.273106 
   63800   -2621508.2    4457.2291     -2617051    319.28652   -1181.4332    7928260.4   0.61033608    36.120168 
   63900     -2624084    4461.3509   -2619622.6    319.58178   -1249.9664    7928260.4   0.61033608    40.639662 
   64000     -2626818    4476.2626   -2622341.7    320.64996   -1401.6996    7928260.4   0.61033608    45.167358 
   64100   -2629679.5    4489.7965   -2625189.7    321.61944   -1195.4205    7928260.4   0.61033608    49.659314 
   64200   -2632573.7    4495.0107   -2628078.7    321.99294   -1348.7825    7928260.4   0.61033608    54.178761 
   64300     -2635253    4474.4634   -2630778.5    320.52107   -1380.2676    7928260.4   0.61033608    58.720006 
   64400   -2638076.7     4486.255   -2633590.4    321.36575    -1150.974    7928260.4   0.61033608    63.282777 
   64500   -2640772.2    4474.8366   -2636297.3     320.5478   -706.64932    7928260.4   0.61033608    67.867597 
   64600   -2643539.9    4482.0998   -2639057.8     321.0681   -1058.7811    7928260.4   0.61033608    72.472859 
   64700   -2646463.3    4497.7233   -2641965.6    322.18726   -1230.6941    7928260.4   0.61033608    77.104189 
   64800   -2649142.7    4475.4113   -2644667.3    320.58898   -1650.3588    7928260.4   0.61033608    81.752888 
   64900   -2651834.1    4473.4336   -2647360.7    320.44731   -586.96421    7928260.4   0.61033608    86.417224 
   65000   -2654540.2    4476.5253   -2650063.7    320.66878   -1097.9337    7928260.4   0.61033608    91.572697 
   65100   -2657226.3    4474.3092     -2652752    320.51003   -891.02923    7928260.4   0.61033608    96.811345 
   65200   -2659664.4    4450.4296     -2655214    318.79945      -909.92    7928260.4   0.61033608    101.69664 
   65300   -2661942.1    4432.1809     -2657510    317.49224   -848.72018    7928260.4   0.61033608    106.40621 
   65400   -2664441.6    4452.2816   -2659989.3    318.93211   -742.06543    7928260.4   0.61033608    111.13194 
   65500   -2666694.4     4430.148   -2662264.2    317.34661   -466.73602    7928260.4   0.61033608    115.88091 
   65600   -2668697.6    4404.4378   -2664293.2     315.5049   -532.40193    7928260.4   0.61033608    120.64786 
   65700     -2670506    4382.8129   -2666123.1    313.95583   -548.74795    7928260.4   0.61033608    125.42881 
   65800   -2672495.1    4399.0672     -2668096    315.12019   -690.29934    7928260.4   0.61033608    130.22344 
   65900   -2674370.1    4388.5099   -2669981.6    314.36393   -425.69638    7928260.4   0.61033608    135.03335 
   66000   -2676057.3    4370.0626   -2671687.2    313.04248   -997.07698    7928260.4   0.61033608    139.85965 
   66100   -2677644.8     4357.943   -2673286.9    312.17432   -848.25864    7928260.4   0.61033608    144.64412 
   66200   -2679241.1    4357.9994   -2674883.1    312.17836   -101.20169    7928260.4   0.61033608    149.57553 
   66300   -2680627.6    4338.9824   -2676288.6    310.81611   -937.34831    7928260.4   0.61033608    155.28014 
   66400   -2682106.5    4344.0289   -2677762.5    311.17761   -461.08562    7928260.4   0.61033608    160.75254 
   66500   -2683650.9    4351.8063   -2679299.1    311.73473   -1013.0833    7928260.4   0.61033608    166.01221 
   66600   -2685170.4    4349.1031   -2680821.3    311.54109   -874.91984    7928260.4   0.61033608    170.88603 
   66700   -2686683.5    4348.7787   -2682334.8    311.51785   -942.59187    7928260.4   0.61033608    175.76669 
   66800     -2688360    4363.1826   -2683996.9    312.54965   -814.91718    7928260.4   0.61033608    180.66075 
   66900   -2690355.5    4396.5813     -2685959    314.94211   -1262.5896    7928260.4   0.61033608    185.57172 
   67000   -2692330.1    4396.7943   -2687933.3    314.95737   -756.47156    7928260.4   0.61033608    190.49557 
   67100   -2694359.7    4403.1944   -2689956.5    315.41583   -1028.1958    7928260.4   0.61033608    195.38692 
   67200   -2696412.1    4405.6279   -2692006.5    315.59015   -546.42007    7928260.4   0.61033608    200.29104 
   67300   -2698476.9    4408.1568   -2694068.7     315.7713    -869.1843    7928260.4   0.61033608    205.20747 
   67400   -2700489.8    4403.1278   -2696086.7    315.41106   -1028.0056    7928260.4   0.61033608     210.3328 
   67500   -2702428.2    4395.4144   -2698032.7    314.85853   -1071.7019    7928260.4   0.61033608    215.93432 
   67600     -2704246    4382.8572   -2699863.2    313.95901   -586.30849    7928260.4   0.61033608    221.02258 
   67700     -2705899    4366.0559   -2701532.9    312.75547   -554.77133    7928260.4   0.61033608    225.99712 
   67800   -2707694.1    4377.5851   -2703316.6    313.58135   -77.489606    7928260.4   0.61033608    230.98749 
   67900     -2709271    4359.2999   -2704911.7    312.27152   -665.38874    7928260.4   0.61033608    235.98775 
   68000   -2710798.1     4351.957   -2706446.2    311.74552    -1198.925    7928260.4   0.61033608    240.99124 
   68100   -2712272.9     4345.028   -2707927.9    311.24917   -881.42015    7928260.4   0.61033608    245.95605 
   68200   -2713717.4    4342.3762   -2709375.1    311.05921   -975.17623    7928260.4   0.61033608     250.9355 
   68300   -2715279.7    4352.8897   -2710926.8    311.81234   -945.92839    7928260.4   0.61033608     255.9299 
   68400   -2716799.1    4348.9124   -2712450.1    311.52743   -342.13628    7928260.4   0.61033608    260.93518 
   68500   -2718272.9    4344.6148   -2713928.3    311.21957   -682.19347    7928260.4   0.61033608    265.95366 
   68600   -2719804.6    4350.1808   -2715454.5    311.61829   -1015.3369    7928260.4   0.61033608    271.38055 
   68700   -2721441.6    4359.8227   -2717081.8    312.30897   -253.74015    7928260.4   0.61033608    276.99795 
   68800   -2722918.6    4345.7438   -2718572.9    311.30045   -341.19043    7928260.4   0.61033608    282.08508 
   68900   -2724382.3    4344.0885   -2720038.2    311.18187    -644.9696    7928260.4   0.61033608    287.15737 
   69000   -2725905.3    4349.5486   -2721555.8      311.573   -635.37612    7928260.4   0.61033608    292.24073 
   69100   -2727342.9    4342.3442   -2723000.6    311.05693    -666.5989    7928260.4   0.61033608    297.28159 
   69200     -2728662    4329.2836   -2724332.7    310.12134   -303.60544    7928260.4   0.61033608    302.33508 
   69300   -2729811.6    4312.1012   -2725499.5    308.89052   -566.93755    7928260.4   0.61033608    307.40143 
   69400   -2731092.2    4323.3599   -2726768.9    309.69701   -1037.0833    7928260.4   0.61033608     312.4773 
   69500   -2732353.8      4321.24   -2728032.6    309.54516   -898.27018    7928260.4   0.61033608    317.56776 
   69600   -2733760.1    4335.3329   -2729424.8    310.55468   -640.88211    7928260.4   0.61033608    322.66876 
   69700   -2735064.2    4326.9694   -2730737.2    309.95557   -487.18613    7928260.4   0.61033608    327.70502 
   69800   -2736415.5    4330.9282   -2732084.6    310.23915   -413.22841    7928260.4   0.61033608     333.4734 
   69900   -2737650.4    4319.4662   -2733330.9     309.4181   -399.73283    7928260.4   0.61033608    338.62119 
   70000   -2738988.5    4329.0515   -2734659.5    310.10473   -768.34959    7928260.4   0.61033608    343.78259 
   70100   -2740337.9    4330.7147   -2736007.2    310.22387   -705.99292    7928260.4   0.61033608     348.9073 
   70200   -2741726.7    4334.6754     -2737392    310.50758   -694.66497    7928260.4   0.61033608    354.05066 
   70300   -2743185.1    4340.9167   -2738844.2    310.95467   -422.98961    7928260.4   0.61033608    359.20794 
   70400   -2744805.8    4358.1496   -2740447.6    312.18912   -742.76873    7928260.4   0.61033608    364.38327 
   70500   -2746214.8    4339.4889   -2741875.4    310.85239   -460.40275    7928260.4   0.61033608    369.57637 
   70600   -2747681.8    4342.9143   -2743338.9    311.09776   -212.11257    7928260.4   0.61033608    374.78115 
   70700     -2748993    4329.7525   -2744663.2    310.15493   -781.37139    7928260.4   0.61033608    380.00449 
   70800   -2750276.1    4324.6074   -2745951.5    309.78638   -208.41762    7928260.4   0.61033608    385.24076 
   70900   -2751639.1    4332.9101   -2747306.2    310.38112   -670.30444    7928260.4   0.61033608    390.83448 
   71000   -2752809.4     4314.903   -2748494.5    309.09122   -445.54021    7928260.4   0.61033608    396.68777 
   71100     -2754077    4321.7983   -2749755.2    309.58515   -494.72399    7928260.4   0.61033608    402.22779 
   71200   -2755238.6    4313.2445   -2750925.3    308.97241   -354.99707    7928260.4   0.61033608    407.49774 
   71300     -2756333    4305.2667   -2752027.7    308.40094   -106.28446    7928260.4   0.61033608    412.74183 
   71400     -2757499    4311.4621   -2753187.5    308.84474   -329.00681    7928260.4   0.61033608    417.99793 
   71500   -2758514.1    4298.1705   -2754215.9    307.89261   -740.83352    7928260.4   0.61033608    423.25673 
   71600   -2759540.5    4296.6477   -2755243.8    307.78352   -319.49997    7928260.4   0.61033608    428.52672 
   71700   -2760650.3     4305.431   -2756344.8    308.41271   -94.940312    7928260.4   0.61033608    433.80538 
   71800   -2761795.8    4310.0384   -2757485.7    308.74275   -657.03224    7928260.4   0.61033608    439.09589 
   71900   -2762973.6    4313.4258   -2758660.2     308.9854   -346.87351    7928260.4   0.61033608    444.38685 
   72000   -2764145.1    4313.0173   -2759832.1    308.95614   -275.49213    7928260.4   0.61033608    449.85382 
   72100   -2765234.1    4304.4735   -2760929.7    308.34412   -291.27063    7928260.4   0.61033608    456.06866 
   72200   -2766453.1     4317.257   -2762135.9    309.25984   -525.90721    7928260.4   0.61033608    461.92028 
   72300     -2767673    4317.7893   -2763355.2    309.29797   -724.43982    7928260.4   0.61033608    467.55805 
   72400   -2768762.9      4304.79   -2764458.1    308.36679   -306.30884    7928260.4   0.61033608    473.08316 
   72500   -2769874.3    4305.7912   -2765568.5    308.43851   -516.60264    7928260.4   0.61033608      478.406 
   72600   -2771028.3    4310.3299     -2766718    308.76363   -536.78951    7928260.4   0.61033608     483.7423 
   72700   -2772222.2    4313.9567   -2767908.3    309.02343   -40.431865    7928260.4   0.61033608    489.08953 
   72800   -2773553.6    4327.7343   -2769225.8    310.01036   -12.910243    7928260.4   0.61033608    494.45233 
   72900   -2774911.8    4332.3422   -2770579.4    310.34044   -63.853165    7928260.4   0.61033608    499.83508 
   73000   -2776053.8     4312.642   -2771741.1    308.92925   -1039.9126    7928260.4   0.61033608    505.23194 
Loop time of 505.232 on 2 procs for 10000 steps with 108000 atoms

Performance: 1.710 ns/day, 14.034 hours/ns, 19.793 timesteps/s
99.5% CPU use with 2 MPI tasks x 1 OpenMP threads

MPI task timing breakdown:
Section |  min time  |  avg time  |  max time  |%varavg| %total
---------------------------------------------------------------
Pair    | 388.56     | 398.92     | 409.29     |  51.9 | 78.96
Neigh   | 74.568     | 76.483     | 78.398     |  21.9 | 15.14
Comm    | 3.5414     | 15.821     | 28.101     | 308.7 |  3.13
Output  | 8.5985     | 8.599      | 8.5994     |   0.0 |  1.70
Modify  | 4.1584     | 4.1663     | 4.1742     |   0.4 |  0.82
Other   |            | 1.239      |            |       |  0.25

Nlocal:    54000 ave 54675 max 53325 min
Histogram: 1 0 0 0 0 0 0 0 0 1
Nghost:    26184 ave 26289 max 26079 min
Histogram: 1 0 0 0 0 0 0 0 0 1
Neighs:    4.61011e+06 ave 4.74919e+06 max 4.47103e+06 min
Histogram: 1 0 0 0 0 0 0 0 0 1

Total # of neighbors = 9220217
Ave neighs/atom = 85.3724
Neighbor list builds = 1000
Dangerous builds = 1000

unfix				temp_rescale
unfix				equilibration2



# ------------------------- STEP : INSTANTANEOUS EXPANSION/CONTRACTION -------------------------

# print "******************** Instantaneous contraction to required density ********************"
# timestep			0.0005
# fix				inst2 all nvt temp 300 300 0.05
# fix				inst1 all deform 1 x scale 0.79 y scale 0.79 z scale 0.79
# run				1000
# unfix				inst1
# unfix				inst2



# ------------------------- STEP : EQUILIBRATION 3 -------------------------

# print "******************** Equilibration at 300 K ********************"

# fix				equilibration3 all nve
# fix				temp_rescale all temp/rescale 100 300 300 0.1 0.9

# timestep 			0.001

# run				10000

# unfix				temp_rescale
# unfix				equilibration3



# ------------------------- STEP 6: MINIMIZATION -------------------------

print "******************** Energy minimization ********************"
******************** Energy minimization ********************

minimize 			0.01 0 1000 1000	# What does the last 1000 refer to?
WARNING: Using 'neigh_modify every 1 delay 0 check yes' setting during minimization (../min.cpp:168)
Per MPI rank memory allocation (min/avg/max) = 57.53 | 58.11 | 58.68 Mbytes
Step PotEng KinEng TotEng Temp Press Volume Density CPU 
   73000   -2776053.8     4312.642   -2771741.1    308.92925   -1039.9126    7928260.4   0.61033608            0 
   73001   -2778338.9     4312.642   -2774026.3    308.92925   -3494.1431    7928260.4   0.61033608   0.32974696 
Loop time of 0.32976 on 2 procs for 1 steps with 108000 atoms

99.8% CPU use with 2 MPI tasks x 1 OpenMP threads

Minimization stats:
  Stopping criterion = energy tolerance
  Energy initial, next-to-last, final = 
        -2776053.77299     -2776053.77299     -2778338.91676
  Force two-norm initial, final = 1071.46 622.113
  Force max component initial, final = 21.5711 21.9839
  Final line search alpha, max atom move = 0.00463584 0.101914
  Iterations, force evaluations = 1 2

MPI task timing breakdown:
Section |  min time  |  avg time  |  max time  |%varavg| %total
---------------------------------------------------------------
Pair    | 0.22818    | 0.23518    | 0.24219    |   1.4 | 71.32
Neigh   | 0          | 0          | 0          |   0.0 |  0.00
Comm    | 0.0007925  | 0.0077896  | 0.014787   |   7.9 |  2.36
Output  | 0          | 0          | 0          |   0.0 |  0.00
Modify  | 0          | 0          | 0          |   0.0 |  0.00
Other   |            | 0.08679    |            |       | 26.32

Nlocal:    54000 ave 54675 max 53325 min
Histogram: 1 0 0 0 0 0 0 0 0 1
Nghost:    26184 ave 26289 max 26079 min
Histogram: 1 0 0 0 0 0 0 0 0 1
Neighs:    4.61011e+06 ave 4.74919e+06 max 4.47103e+06 min
Histogram: 1 0 0 0 0 0 0 0 0 1

Total # of neighbors = 9220217
Ave neighs/atom = 85.3724
Neighbor list builds = 0
Dangerous builds = 0
min_style			cg



# ------------------------- SIMULATION DONE -------------------------

print "******************** End ********************"
******************** End ********************
Total wall time: 0:31:29
