LAMMPS data file via write_data, version 12 Dec 2018, timestep = 100098

2108 atoms
5 atom types

3.9658539273772906e+00 3.7034146072622278e+01 xlo xhi
7.8505010294105286e+00 3.8149498970587779e+01 ylo yhi
1.0211924652923066e-01 4.5897880753470361e+01 zlo zhi

Masses

1 40.08
2 28.09
3 16
4 1
5 12.0107

Atoms # full

7 0 2 4.0000000000000000e+00 7.6427755742764338e+00 9.4517346975742527e+00 3.0425091718465325e+00 0 0 0
8 0 2 4.0000000000000000e+00 7.2912126174752663e+00 1.2293817203564691e+01 1.6347553677011897e+00 0 0 0
13 0 3 -2.0000000000000000e+00 7.2085294742660988e+00 9.6559330626320889e+00 4.5542305803546368e+00 0 0 0
16 0 3 -2.0000000000000000e+00 8.0345682828940461e+00 1.3037187244594154e+01 2.9882299070690879e+00 0 0 0
17 0 3 -2.0000000000000000e+00 7.2534321846411913e+00 1.0758519293989027e+01 2.1243991712931467e+00 0 0 0
20 0 3 -2.0000000000000000e+00 6.3731512037181863e+00 1.3000252958482044e+01 5.0751139564741221e+00 0 0 0
5 0 1 2.0000000000000000e+00 9.3308740177395268e+00 9.4931117659131363e+00 5.8271431493446917e+00 0 0 0
6 0 1 2.0000000000000000e+00 6.2963313634628317e+00 1.0992013614428398e+01 6.1228873421780783e+00 0 0 0
9 0 2 4.0000000000000000e+00 7.6126051802986359e+00 1.3738901183994127e+01 4.3712383478244350e+00 0 0 0
18 0 3 -2.0000000000000000e+00 6.0076132222391845e+00 1.3097326878918386e+01 1.4069822898581104e+00 0 0 0
31 0 3 -2.0000000000000000e+00 1.1600619455892605e+01 9.1861405620722980e+00 6.1344127166846505e+00 0 0 0
2 0 1 2.0000000000000000e+00 1.1051053760104010e+01 9.6280686904482629e+00 1.5614471610187510e+00 0 0 0
15 0 3 -2.0000000000000000e+00 9.2427653120434190e+00 9.3185024775363772e+00 3.1707863675813321e+00 0 0 0
47 0 2 4.0000000000000000e+00 9.4790430719041687e+00 1.4456751561766241e+01 6.7914116800879363e+00 0 0 0
62 0 3 -2.0000000000000000e+00 8.8616843944859145e+00 1.3917499340414432e+01 5.4103256737480452e+00 0 0 0
42 0 1 2.0000000000000000e+00 1.0748014793190878e+01 1.3228143431433216e+01 2.4925468162573052e+00 0 0 0
56 0 3 -2.0000000000000000e+00 1.0541654545570617e+01 1.4983239758844396e+01 9.0966391624849896e-01 0 0 0
965 0 3 -2.0000000000000000e+00 1.0629700221514163e+01 1.1602188847226229e+01 6.3263241228377176e-01 0 0 1
19 0 3 -2.0000000000000000e+00 8.3518185131744769e+00 1.2406288674635290e+01 4.3860324137352785e-01 0 0 0
1228 0 1 2.0000000000000000e+00 5.1112133170290015e+00 1.5048551193224249e+01 5.5940623974299497e-01 0 0 1
61 0 3 -2.0000000000000000e+00 1.0825347397698492e+01 1.3638811007226725e+01 7.2033910606526783e+00 0 0 0
26 0 3 -2.0000000000000000e+00 8.4541170177842062e+00 1.1261937360438667e+01 7.2645424338401368e+00 0 0 0
293 0 1 2.0000000000000000e+00 4.8847064876745270e+00 1.5369824391161874e+01 5.2340515732636392e+00 0 0 0
33 0 4 1.0000000000000000e+00 1.1729667354821379e+01 9.9808204315924449e+00 7.1589680012140562e+00 0 0 0
34 0 4 1.0000000000000000e+00 1.1692816418784080e+01 8.7395668679406118e+00 7.1715857001228516e+00 0 0 0
36 0 4 1.0000000000000000e+00 9.9686725542282755e+00 8.1393816536134516e+00 3.4851607130508486e+00 0 0 0
58 0 3 -2.0000000000000000e+00 1.2121706984691295e+01 1.1291546181726504e+01 7.1738303457564419e+00 0 0 0
21 0 3 -2.0000000000000000e+00 7.1312999615650714e+00 1.5227081398997530e+01 4.0227008399537452e+00 0 0 0
14 0 3 -2.0000000000000000e+00 7.2552836453274923e+00 8.0869479610417283e+00 2.3922492265834356e+00 0 0 0
49 0 3 -2.0000000000000000e+00 1.2363551206847823e+01 1.1852181937184637e+01 3.1424359911024409e+00 0 0 0
41 0 1 2.0000000000000000e+00 1.3039048638140217e+01 1.0629545282838603e+01 4.9989508256307946e+00 0 0 0
43 0 2 4.0000000000000000e+00 1.3600927593690276e+01 1.1521924055864421e+01 2.1523110385044060e+00 0 0 0
50 0 3 -2.0000000000000000e+00 1.3296619981022115e+01 1.0014260996907810e+01 1.7425402463656283e+00 0 0 0
51 0 3 -2.0000000000000000e+00 1.4920364359794954e+01 1.1438336311679789e+01 2.9980148532392010e+00 0 0 0
53 0 3 -2.0000000000000000e+00 1.3530958469948605e+01 1.2516451069706697e+01 9.0210733506664875e-01 0 0 0
72 0 4 1.0000000000000000e+00 1.6096399783246135e+01 1.0983150575185528e+01 2.5013498166816084e+00 0 0 0
68 0 3 -2.0000000000000000e+00 1.6755507609816881e+01 1.0414848542163874e+01 1.5342627235347182e+00 0 0 0
38 0 1 2.0000000000000000e+00 1.8464515316475055e+01 1.1538934201710839e+01 3.4174427583707517e-01 0 0 0
71 0 4 1.0000000000000000e+00 1.6950453826911719e+01 9.3495579651088292e+00 1.0145111496742563e+00 0 0 0
1784 1 5 0.0000000000000000e+00 1.9428316825809116e+01 1.4981970867228409e+01 6.0837477081597138e+00 0 0 0
37 0 1 2.0000000000000000e+00 1.4589078495465003e+01 8.5873952000535265e+00 5.5736022724481182e-01 0 0 0
1742 1 5 0.0000000000000000e+00 1.4739788884252862e+01 1.5440726689976429e+01 1.0864576204352974e+00 0 0 0
428 0 3 -2.0000000000000000e+00 1.2999171729470925e+01 2.1637146823697975e+01 1.3526714976039544e+01 0 0 0
63 0 3 -2.0000000000000000e+00 9.8493432519079658e+00 1.6080533879554245e+01 6.5347955931440076e+00 0 0 0
320 0 3 -2.0000000000000000e+00 7.0129397865653909e+00 1.6666681473964118e+01 2.1458863426867167e+00 0 0 0
324 0 4 1.0000000000000000e+00 6.1618236826907333e+00 1.6255522660534517e+01 3.0509313138715464e+00 0 0 0
290 0 1 2.0000000000000000e+00 6.8361481010223413e+00 1.8700669718175806e+01 1.3628996108837037e+00 0 0 0
303 0 3 -2.0000000000000000e+00 4.7893216806278112e+00 1.6430042887188417e+01 3.2885283394256084e+00 0 0 0
319 0 3 -2.0000000000000000e+00 6.5069911133560403e+00 1.9973153244746300e+01 5.4486540590500239e+00 0 0 0
322 0 4 1.0000000000000000e+00 5.7958542617608755e+00 2.1025378380647144e+01 5.1571955563455054e+00 0 0 0
338 0 3 -2.0000000000000000e+00 7.9392610062500166e+00 2.0701214524669638e+01 1.2234203217422446e+00 0 0 0
321 0 4 1.0000000000000000e+00 5.8130233508296101e+00 1.8819824667597192e+01 5.5388662113776741e+00 0 0 0
323 0 4 1.0000000000000000e+00 7.3423824011903456e+00 1.6211599860011859e+01 3.2395541609640346e+00 0 0 0
311 0 3 -2.0000000000000000e+00 5.4862517175245422e+00 1.7763306502302473e+01 6.3792884564991050e+00 0 0 0
325 0 1 2.0000000000000000e+00 8.5130042911948554e+00 1.6235114721638709e+01 4.9855207405101065e-01 0 0 0
337 0 3 -2.0000000000000000e+00 9.0323520898498462e+00 2.1786424315657666e+01 3.2609267088802918e+00 0 0 0
329 0 1 2.0000000000000000e+00 8.7121479033498854e+00 2.0677760699745406e+01 5.2566440132672065e+00 0 0 0
331 0 2 4.0000000000000000e+00 9.1726922556945514e+00 2.1550208470247579e+01 1.7240868287997984e+00 0 0 0
339 0 3 -2.0000000000000000e+00 1.0439058972007967e+01 2.0663420529064002e+01 1.2698859067023611e+00 0 0 0
360 0 4 1.0000000000000000e+00 1.0248117504251814e+01 1.9274529379511339e+01 9.1272818571586756e-01 0 0 0
48 0 2 4.0000000000000000e+00 1.0291124372046220e+01 1.7592966048311741e+01 6.7568937172100361e+00 0 0 0
64 0 3 -2.0000000000000000e+00 9.4466879367222312e+00 1.8766484023691934e+01 6.3237844163212120e+00 0 0 0
305 0 3 -2.0000000000000000e+00 4.4339820799800558e+00 1.8882509132780065e+01 2.3413144848412637e+00 0 0 0
356 0 3 -2.0000000000000000e+00 9.7010141500533660e+00 1.8204203754567619e+01 2.3231372872073072e-01 0 0 0
308 0 3 -2.0000000000000000e+00 5.1698752475411140e+00 2.2176293544534705e+01 4.7560224039681600e+00 0 0 0
304 0 3 -2.0000000000000000e+00 4.4551446347343751e+00 2.1619853440527212e+01 2.4256491851959043e+00 0 0 0
310 0 3 -2.0000000000000000e+00 4.6849123664981702e+00 1.5625069118379791e+01 7.5492039279756042e+00 0 0 0
307 0 3 -2.0000000000000000e+00 5.1045715061428236e+00 2.0268634086641736e+01 2.9443189446187018e-01 0 0 0
297 0 2 4.0000000000000000e+00 4.7450730643306462e+00 2.2856961957775908e+01 3.3980230442964059e+00 0 0 0
296 0 2 4.0000000000000000e+00 4.1649464425856175e+00 2.0287778243747191e+01 1.5887055292013652e+00 0 0 0
65 0 3 -2.0000000000000000e+00 1.1685591824940078e+01 1.7642012716839723e+01 7.3989855912434530e+00 0 0 0
472 0 1 2.0000000000000000e+00 4.1218905148373537e+00 2.2140335429523052e+01 6.8775737054382855e+00 1 0 0
328 0 1 2.0000000000000000e+00 7.0236416294776687e+00 1.9424214527243649e+01 7.6597701239641065e+00 0 0 0
350 0 3 -2.0000000000000000e+00 8.1749241979831897e+00 2.2976525579246260e+01 6.0432445607835259e+00 0 0 0
1758 1 5 0.0000000000000000e+00 1.3091697793605519e+01 2.2707500422950318e+01 2.3677648364621486e+00 0 0 0
1778 1 5 0.0000000000000000e+00 1.2947034468147859e+01 2.2169175405793542e+01 4.9370670353158861e+00 0 0 0
1780 1 5 0.0000000000000000e+00 1.3739865903532538e+01 1.9950346463869735e+01 6.3366358631504101e+00 0 0 0
1761 1 5 0.0000000000000000e+00 1.4218570508301379e+01 1.8122602729095604e+01 2.2971262299148032e+00 0 0 0
1781 1 5 0.0000000000000000e+00 1.4241115194321518e+01 1.7255745723491032e+01 5.1064141190090409e+00 0 0 0
1762 1 5 0.0000000000000000e+00 1.7231947810125579e+01 1.5725955207646987e+01 2.4670916758577470e+00 0 0 0
1782 1 5 0.0000000000000000e+00 1.6859195868771430e+01 1.6023484292021504e+01 5.1746103060369064e+00 0 0 0
1764 1 5 0.0000000000000000e+00 2.0002136363488596e+01 1.6756201413849610e+01 4.0475050486049771e+00 0 0 0
1743 1 5 0.0000000000000000e+00 1.8440369764646281e+01 1.7743689863759357e+01 9.4721771509323205e-01 0 0 0
1739 1 5 0.0000000000000000e+00 1.7237287312029242e+01 2.2261209744562318e+01 8.2813325986190500e-01 0 0 0
1740 1 5 0.0000000000000000e+00 1.6650776860429257e+01 1.9663114455284667e+01 1.5342449820089701e+00 0 0 0
1759 1 5 0.0000000000000000e+00 1.5843292957414244e+01 2.2353767771729729e+01 3.1935772166055920e+00 0 0 0
1760 1 5 0.0000000000000000e+00 1.5656835482952193e+01 1.9723506208797669e+01 4.3108809682141214e+00 0 0 0
1763 1 5 0.0000000000000000e+00 1.8207113546093542e+01 1.8798477504757923e+01 3.5411334404926809e+00 0 0 0
1779 1 5 0.0000000000000000e+00 1.6188405994050367e+01 2.2043486136277657e+01 5.9572206860227714e+00 0 0 0
1783 1 5 0.0000000000000000e+00 1.8435433709324901e+01 1.8334057039693608e+01 6.1606649416868668e+00 0 0 0
1801 1 5 0.0000000000000000e+00 1.5848521364078975e+01 1.8150752776535622e+01 7.4057838242786742e+00 0 0 0
2099 1 5 0.0000000000000000e+00 1.4278229110126937e+01 2.0517016414012915e+01 7.4771750453968766e-01 0 0 1
66 0 3 -2.0000000000000000e+00 8.5416729714811872e+00 1.4453618049208188e+01 8.0552769673617757e+00 0 0 0
30 0 3 -2.0000000000000000e+00 6.4613638547300773e+00 1.0616637236263006e+01 8.5048613903653187e+00 0 0 0
11 0 2 4.0000000000000000e+00 7.8792422729086269e+00 1.1111861351216248e+01 8.7335496659680096e+00 0 0 0
27 0 3 -2.0000000000000000e+00 8.0891007311558702e+00 1.2492961591735423e+01 9.6286618917085498e+00 0 0 0
25 0 3 -2.0000000000000000e+00 8.8402075466181032e+00 9.9455924687961179e+00 9.3893500591974632e+00 0 0 0
29 0 3 -2.0000000000000000e+00 9.5100413014607845e+00 1.4557713327756277e+01 1.0478522260576799e+01 0 0 0
12 0 2 4.0000000000000000e+00 8.2351103740147380e+00 1.4125820174896084e+01 9.6389013690947714e+00 0 0 0
23 0 3 -2.0000000000000000e+00 1.1309392050754923e+01 9.1194348427020824e+00 8.4713352112306630e+00 0 0 0
3 0 1 2.0000000000000000e+00 9.8931932651629086e+00 1.1989513544566091e+01 1.1309766530732531e+01 0 0 0
60 0 3 -2.0000000000000000e+00 1.1122790077833219e+01 1.2082497397730874e+01 9.3691599387692701e+00 0 0 0
79 0 2 4.0000000000000000e+00 1.0002614563748368e+01 9.8232614469722925e+00 1.4508843379003723e+01 0 0 0
86 0 3 -2.0000000000000000e+00 1.0012964387457254e+01 9.8462735420572240e+00 1.2915781044073757e+01 0 0 0
90 0 3 -2.0000000000000000e+00 1.0095610534658469e+01 1.3482478531477055e+01 1.3381771795964202e+01 0 0 0
80 0 2 4.0000000000000000e+00 1.0502440615545865e+01 1.2922992433278717e+01 1.4738137646827527e+01 0 0 0
46 0 2 4.0000000000000000e+00 1.1766212320582881e+01 1.2588139048361642e+01 8.0117230313892591e+00 0 0 0
10 0 2 4.0000000000000000e+00 9.8440853936964281e+00 8.6681498110643904e+00 9.0714110046593035e+00 0 0 0
28 0 3 -2.0000000000000000e+00 6.9490265532539297e+00 1.4847922362981315e+01 1.0209766432699038e+01 0 0 0
89 0 3 -2.0000000000000000e+00 9.9617323255259258e+00 1.1385666123080712e+01 1.4871301976811628e+01 0 0 0
73 0 1 2.0000000000000000e+00 8.6238397273983800e+00 8.1367722141866849e+00 1.2153892375067729e+01 0 0 0
87 0 3 -2.0000000000000000e+00 1.1364460597278958e+01 9.2690821866692197e+00 1.5067285102049379e+01 0 0 0
85 0 3 -2.0000000000000000e+00 8.8069083044783145e+00 8.9724749155007881e+00 1.5021929081897856e+01 0 0 0
91 0 3 -2.0000000000000000e+00 1.2106583082355998e+01 1.2936086428619841e+01 1.4879533491420771e+01 0 0 0
74 0 1 2.0000000000000000e+00 1.1273818734116794e+01 1.5171905053033075e+01 1.2024912102994323e+01 0 0 0
108 0 4 1.0000000000000000e+00 1.2325488353265030e+01 8.5079118821302995e+00 1.4572255213613959e+01 0 0 0
24 0 3 -2.0000000000000000e+00 1.0027365404991967e+01 7.9340774059175567e+00 1.0409189975669964e+01 0 0 0
117 0 2 4.0000000000000000e+00 1.3500510782449021e+01 1.3696667020097452e+01 1.5170521568137085e+01 0 0 0
40 0 1 2.0000000000000000e+00 1.2853016192470697e+01 1.0497449195988361e+01 9.7582064762775609e+00 0 0 0
1802 1 5 0.0000000000000000e+00 1.7030152874054870e+01 1.5084772202295571e+01 7.8245278627224808e+00 0 0 0
59 0 3 -2.0000000000000000e+00 1.3158690569353913e+01 1.3187891688033147e+01 8.4394871782710830e+00 0 0 0
39 0 1 2.0000000000000000e+00 1.3953063017855520e+01 1.4876766390495622e+01 9.3919044265274856e+00 0 0 0
122 0 3 -2.0000000000000000e+00 1.3570646945002530e+01 9.4820943980861259e+00 1.1694909898827181e+01 0 0 0
126 0 3 -2.0000000000000000e+00 1.3327495804147350e+01 1.4439097765380733e+01 1.1466918574702323e+01 0 0 0
124 0 3 -2.0000000000000000e+00 1.4265161817401776e+01 1.3843843876595573e+01 1.3710641772735924e+01 0 0 0
115 0 2 4.0000000000000000e+00 1.4534925986562031e+01 1.0449578414865202e+01 1.2530177307628703e+01 0 0 0
121 0 3 -2.0000000000000000e+00 1.4623995500245320e+01 1.0340607831787185e+01 1.4103691325049212e+01 0 0 0
125 0 3 -2.0000000000000000e+00 1.3944417931346930e+01 1.1911003417518049e+01 1.2124866091918443e+01 0 0 0
123 0 3 -2.0000000000000000e+00 1.5935032380736127e+01 1.0270347400967585e+01 1.1836003541967258e+01 0 0 0
172 0 3 -2.0000000000000000e+00 1.9488170420958284e+01 1.1829733512814432e+01 9.9283693556663923e+00 0 0 0
110 0 1 2.0000000000000000e+00 1.7421662990930610e+01 1.2105259455832870e+01 1.1017196344328816e+01 0 0 0
116 0 2 4.0000000000000000e+00 1.4324980520855922e+01 1.3488810022132039e+01 1.2170594826682381e+01 0 0 0
127 0 3 -2.0000000000000000e+00 1.5724930797855425e+01 1.3491356906512083e+01 1.1443663602121120e+01 0 0 0
409 0 3 -2.0000000000000000e+00 1.0956246965550699e+01 2.2955234998043782e+01 1.4267203258020503e+01 0 0 0
361 0 1 2.0000000000000000e+00 8.5923319307169521e+00 1.5537774663363990e+01 1.4244373408551285e+01 0 0 0
298 0 2 4.0000000000000000e+00 5.2659379588631063e+00 1.7064567728013138e+01 7.7643255983279351e+00 0 0 0
313 0 3 -2.0000000000000000e+00 4.2160374424180489e+00 1.7871376498934477e+01 8.6728117055088987e+00 0 0 0
396 0 4 1.0000000000000000e+00 1.0589356402700236e+01 1.7166369276052897e+01 1.4678339030961215e+01 0 0 0
292 0 1 2.0000000000000000e+00 4.8431449780580591e+00 1.5813128649646396e+01 1.0436900937279056e+01 0 0 0
379 0 3 -2.0000000000000000e+00 7.2765104017939146e+00 2.1979333781321298e+01 1.3962197704953923e+01 0 0 0
392 0 3 -2.0000000000000000e+00 1.1246039111356110e+01 1.6230184514262586e+01 1.4276324745324937e+01 0 0 0
312 0 3 -2.0000000000000000e+00 6.5390928366109327e+00 1.7340314539028512e+01 8.6076952589388043e+00 0 0 0
291 0 1 2.0000000000000000e+00 7.4958903420754073e+00 1.7566670243786170e+01 1.0720313707863788e+01 0 0 0
300 0 2 4.0000000000000000e+00 4.6238444385003872e+00 1.9074528223598769e+01 1.2123876887136460e+01 0 0 0
317 0 3 -2.0000000000000000e+00 5.2236170379899649e+00 1.7648583553793308e+01 1.1805934462946528e+01 0 0 0
368 0 2 4.0000000000000000e+00 6.4522033065955080e+00 2.0659965632240258e+01 1.4164091523597085e+01 0 0 0
374 0 3 -2.0000000000000000e+00 8.3138953289741586e+00 1.7482682344216588e+01 1.2932009086078228e+01 0 0 0
377 0 3 -2.0000000000000000e+00 7.5338133907379481e+00 1.9482864692448594e+01 1.4465847720776981e+01 0 0 0
378 0 3 -2.0000000000000000e+00 5.4858625853425140e+00 2.0114132007046898e+01 1.3001429559864027e+01 0 0 0
348 0 3 -2.0000000000000000e+00 7.3453056316612804e+00 2.1939140903718329e+01 1.0647267299001605e+01 0 0 0
349 0 3 -2.0000000000000000e+00 8.2016527660685750e+00 2.1637137884833475e+01 8.3072285876634453e+00 0 0 0
346 0 3 -2.0000000000000000e+00 8.2227589115650535e+00 1.9571965436091254e+01 9.7660511519017579e+00 0 0 0
367 0 2 4.0000000000000000e+00 8.7911146692132132e+00 1.8660582159487944e+01 1.3845653062058641e+01 0 0 0
334 0 2 4.0000000000000000e+00 8.4369269332358385e+00 2.1092811202134744e+01 9.7984089116956099e+00 0 0 0
347 0 3 -2.0000000000000000e+00 9.9401271394203068e+00 2.1513745214062038e+01 1.0213002747844476e+01 0 0 0
375 0 3 -2.0000000000000000e+00 9.6905551681601825e+00 1.9765276042861231e+01 1.3371048465722396e+01 0 0 0
397 0 1 2.0000000000000000e+00 1.1018648371888988e+01 2.1263667316188389e+01 1.2249258043666247e+01 0 0 0
294 0 1 2.0000000000000000e+00 4.9387594561230124e+00 2.2437883415285452e+01 9.6941106489151316e+00 0 0 0
314 0 3 -2.0000000000000000e+00 4.6062972890184497e+00 2.0371982403120146e+01 8.2783541502649065e+00 0 0 0
373 0 3 -2.0000000000000000e+00 9.4424226165056009e+00 1.7877556328194384e+01 1.5097604847636632e+01 0 0 0
315 0 3 -2.0000000000000000e+00 4.2741169220924755e+00 1.9661750369481002e+01 1.0661639175982158e+01 0 0 0
1820 1 5 0.0000000000000000e+00 1.3597535949728540e+01 1.9198002255201597e+01 1.1762147059479755e+01 0 0 0
431 0 4 1.0000000000000000e+00 1.4121541761191871e+01 2.1232886488922134e+01 1.3723362888711295e+01 0 0 0
1821 1 5 0.0000000000000000e+00 1.6596977279228749e+01 1.9427566072478509e+01 9.9372419438011335e+00 0 0 0
395 0 4 1.0000000000000000e+00 1.2124596665589555e+01 1.5825676371444072e+01 1.5170565812242735e+01 0 0 0
1800 1 5 0.0000000000000000e+00 1.3332868392702153e+01 1.9139820096169338e+01 8.9549229756121367e+00 0 0 0
70 0 4 1.0000000000000000e+00 1.2912955875495753e+01 1.7369064514855946e+01 7.9482262470413945e+00 0 0 0
1843 1 5 0.0000000000000000e+00 1.8213147768077718e+01 1.6052201736860216e+01 1.3947762229940794e+01 0 0 0
1842 1 5 0.0000000000000000e+00 1.6471152293148347e+01 1.7976367083997523e+01 1.2280685034742630e+01 0 0 0
1822 1 5 0.0000000000000000e+00 1.5885984078471816e+01 1.6109377910802586e+01 1.0217693642097981e+01 0 0 0
1838 1 5 0.0000000000000000e+00 1.7653864120299616e+01 2.2526319162949076e+01 1.1965184417371047e+01 0 0 0
1841 1 5 0.0000000000000000e+00 1.4030976080458643e+01 1.6684039747731660e+01 1.3089955116446047e+01 0 0 0
69 0 4 1.0000000000000000e+00 1.4939184050231384e+01 1.7499103003889061e+01 7.7035968119482217e+00 0 0 0
1858 1 5 0.0000000000000000e+00 1.7072895612031381e+01 2.2539354882397419e+01 1.4728240974764969e+01 0 0 0
1819 1 5 0.0000000000000000e+00 1.4936931922861339e+01 2.1618987230819133e+01 1.1112401258456561e+01 0 0 0
432 0 4 1.0000000000000000e+00 1.2174589081687898e+01 2.2133637093748987e+01 1.4305218815385558e+01 0 0 0
1803 1 5 0.0000000000000000e+00 1.8398461402981930e+01 1.7544710715357628e+01 8.7578582721596696e+00 0 0 0
1823 1 5 0.0000000000000000e+00 1.8671689956789145e+01 1.6341538507572338e+01 1.1220175679149250e+01 0 0 0
1799 1 5 0.0000000000000000e+00 1.5226970176870838e+01 2.1354136369184246e+01 8.3993611587838721e+00 0 0 0
1839 1 5 0.0000000000000000e+00 1.5234744089108185e+01 2.0829664582290732e+01 1.3696490637201807e+01 0 0 0
67 0 3 -2.0000000000000000e+00 1.4085486697968463e+01 1.6767283479842035e+01 8.2031252595939375e+00 0 0 0
1861 1 5 0.0000000000000000e+00 1.3458490911098428e+01 1.9038175635488965e+01 1.4959624246427728e+01 0 0 0
1840 1 5 0.0000000000000000e+00 1.8098487984088763e+01 2.0026719610002182e+01 1.3422413841033297e+01 0 0 0
1862 1 5 0.0000000000000000e+00 1.6123515851985154e+01 1.7735602916191649e+01 1.5017677193978617e+01 0 0 0
144 0 4 1.0000000000000000e+00 1.5515513624826688e+01 1.0771612246983278e+01 1.5242510331427926e+01 0 0 0
354 0 3 -2.0000000000000000e+00 6.0866640314198355e+00 2.2998709810261126e+01 7.7615148482665139e+00 0 0 0
2104 1 5 0.0000000000000000e+00 1.9633168932397172e+01 1.4011752588112309e+01 2.3127016902399333e-01 0 0 1
102 0 3 -2.0000000000000000e+00 9.2485235999331969e+00 1.3342173266034036e+01 1.8258652732223617e+01 0 0 0
82 0 2 4.0000000000000000e+00 1.0029463512860499e+01 9.1853094904771115e+00 1.9781646932514548e+01 0 0 0
83 0 2 4.0000000000000000e+00 1.0194591441415140e+01 1.2236358158077662e+01 1.9005350762200532e+01 0 0 0
95 0 3 -2.0000000000000000e+00 1.1522086125884226e+01 8.6940697057301097e+00 1.9432822741428847e+01 0 0 0
96 0 3 -2.0000000000000000e+00 9.9556400474725937e+00 9.2468690296355049e+00 2.1329135144937482e+01 0 0 0
97 0 3 -2.0000000000000000e+00 9.7468102956840266e+00 1.0662751595705346e+01 1.9140788497998166e+01 0 0 0
98 0 3 -2.0000000000000000e+00 1.1590387576413743e+01 1.2249768994688358e+01 1.8165953580747257e+01 0 0 0
99 0 3 -2.0000000000000000e+00 1.0625732071405746e+01 1.2680757417701381e+01 2.0488015595775611e+01 0 0 0
84 0 2 4.0000000000000000e+00 1.1756193789618790e+01 1.3433571303228014e+01 2.1365182756841179e+01 0 0 0
81 0 2 4.0000000000000000e+00 9.3609133041957655e+00 1.4576768875788421e+01 1.7227248329876936e+01 0 0 0
100 0 3 -2.0000000000000000e+00 1.1795175116744488e+01 1.4831077058374316e+01 2.0645567917711737e+01 0 0 0
88 0 3 -2.0000000000000000e+00 9.9182599518216445e+00 1.3787265543154220e+01 1.5949987028418153e+01 0 0 0
918 0 3 -2.0000000000000000e+00 1.1493079616756656e+01 1.3638269696212472e+01 2.2929553128762965e+01 0 0 0
94 0 3 -2.0000000000000000e+00 9.2245366073807471e+00 8.0202088940428595e+00 1.9076681134984295e+01 0 0 0
76 0 1 2.0000000000000000e+00 1.2271715366799965e+01 9.0235615012450499e+00 2.2211269507204886e+01 0 0 0
105 0 4 1.0000000000000000e+00 1.2530266744918153e+01 8.7109191527369845e+00 1.8616827097139986e+01 0 0 0
75 0 1 2.0000000000000000e+00 1.2735005130607213e+01 1.0950961651699952e+01 1.6800086502069199e+01 0 0 0
101 0 3 -2.0000000000000000e+00 1.3143899602331658e+01 1.2641920116041378e+01 2.1239352199460097e+01 0 0 0
78 0 1 2.0000000000000000e+00 1.2700495754721137e+01 1.4668115504856065e+01 1.8259614350081048e+01 0 0 0
128 0 3 -2.0000000000000000e+00 1.4303496266062066e+01 1.2791272785931074e+01 1.6183816966575094e+01 0 0 0
136 0 3 -2.0000000000000000e+00 1.4523948131975711e+01 1.3388618646734821e+01 1.9287805392694427e+01 0 0 0
135 0 3 -2.0000000000000000e+00 1.5152016070757554e+01 1.1090871226176972e+01 1.9960317621896415e+01 0 0 0
120 0 2 4.0000000000000000e+00 1.4624986694495128e+01 1.2499776951881008e+01 2.0553673202752375e+01 0 0 0
106 0 4 1.0000000000000000e+00 1.4593914491339406e+01 8.9698853060486172e+00 1.8345572172260407e+01 0 0 0
138 0 3 -2.0000000000000000e+00 1.6046226346646325e+01 9.0345039354113723e+00 1.8723209939299014e+01 0 0 0
133 0 3 -2.0000000000000000e+00 1.6508075385099424e+01 9.4734291739339884e+00 2.1439960850586896e+01 0 0 0
143 0 4 1.0000000000000000e+00 1.6230632168160479e+01 9.5441237399770742e+00 1.7245977209934871e+01 0 0 0
119 0 2 4.0000000000000000e+00 1.6391427013245181e+01 1.0042408019501151e+01 1.9972566100885839e+01 0 0 0
137 0 3 -2.0000000000000000e+00 1.5704628253087474e+01 1.2851447043226221e+01 2.1646736507577700e+01 0 0 0
134 0 3 -2.0000000000000000e+00 1.7606652220300646e+01 1.0994231617335345e+01 1.9656445430798946e+01 0 0 0
114 0 1 2.0000000000000000e+00 1.5930761943011243e+01 1.2334664991929094e+01 1.7661270814468061e+01 0 0 0
139 0 3 -2.0000000000000000e+00 1.9793591612401141e+01 1.1921731940249082e+01 2.0771188913024382e+01 0 0 0
142 0 4 1.0000000000000000e+00 1.8910851673322536e+01 1.1527228256917935e+01 1.9886342183710532e+01 0 0 0
140 0 3 -2.0000000000000000e+00 1.5937864041665737e+01 1.0332214242557429e+01 1.6492913724276473e+01 0 0 0
129 0 3 -2.0000000000000000e+00 1.3058396846517850e+01 1.5052479673896366e+01 1.5752760252910234e+01 0 0 0
103 0 3 -2.0000000000000000e+00 1.3569780939862776e+01 8.9554018381151170e+00 1.7795087828304670e+01 0 0 0
113 0 1 2.0000000000000000e+00 1.4485644805622874e+01 8.5158929885434418e+00 1.5653765540908317e+01 0 0 0
1904 1 5 0.0000000000000000e+00 1.9657822220425871e+01 1.5072782681173139e+01 2.0723604841200078e+01 0 0 0
111 0 1 2.0000000000000000e+00 1.8002004710419634e+01 1.1972259584133667e+01 2.2289717448874374e+01 0 0 0
1864 1 5 0.0000000000000000e+00 1.9956267793190154e+01 1.5108530491891713e+01 1.6116293340461127e+01 0 0 0
1902 1 5 0.0000000000000000e+00 1.6288682796810207e+01 1.5225649903175551e+01 1.9254844874468429e+01 0 0 0
132 0 3 -2.0000000000000000e+00 1.4293211003713317e+01 9.9133392176022763e+00 2.2642348410692680e+01 0 0 0
118 0 2 4.0000000000000000e+00 1.5785016457756372e+01 9.4929449777377926e+00 2.2886902763306704e+01 0 0 0
1863 1 5 0.0000000000000000e+00 1.6912848801238031e+01 1.5345253686380785e+01 1.6433450213120338e+01 0 0 0
1920 1 5 0.0000000000000000e+00 1.3560179210586339e+01 1.9154222754744467e+01 2.3123257723384587e+01 0 0 0
93 0 3 -2.0000000000000000e+00 8.2186034163379436e+00 1.5508401684939871e+01 1.6654847408796481e+01 0 0 0
92 0 3 -2.0000000000000000e+00 1.0339159986557043e+01 1.5535733310233582e+01 1.7981423353215391e+01 0 0 0
370 0 2 4.0000000000000000e+00 7.8200904896380692e+00 1.8985152255460388e+01 2.0792427405207480e+01 0 0 0
371 0 2 4.0000000000000000e+00 6.8519900695670213e+00 2.1252760412211106e+01 1.8879005123192034e+01 0 0 0
384 0 3 -2.0000000000000000e+00 6.8426106745045754e+00 1.8135255516439411e+01 2.1594866737008736e+01 0 0 0
385 0 3 -2.0000000000000000e+00 7.0208874642253285e+00 1.9976148902236389e+01 1.9766060465777027e+01 0 0 0
390 0 3 -2.0000000000000000e+00 5.4707962261314540e+00 2.1352682796516113e+01 1.8056122363001034e+01 0 0 0
1154 0 1 2.0000000000000000e+00 4.8373310128712106e+00 1.8273762913784847e+01 2.2592138704045507e+01 0 0 0
386 0 3 -2.0000000000000000e+00 8.0236918532748049e+00 2.1173421429409444e+01 1.7800874840882813e+01 0 0 0
382 0 3 -2.0000000000000000e+00 8.8704782570350229e+00 1.8124492088702056e+01 1.9947065417388846e+01 0 0 0
364 0 1 2.0000000000000000e+00 1.0114652498018732e+01 1.6299711558338000e+01 2.0203110495885859e+01 0 0 0
365 0 1 2.0000000000000000e+00 9.0644931820028276e+00 1.8036415056442696e+01 1.7405726872392421e+01 0 0 0
383 0 3 -2.0000000000000000e+00 8.5748973439023981e+00 1.9975002083551750e+01 2.1805901132155071e+01 0 0 0
391 0 3 -2.0000000000000000e+00 1.0222392405105930e+01 2.0137176441617981e+01 1.7242387220495459e+01 0 0 0
393 0 4 1.0000000000000000e+00 1.1365656903517399e+01 2.0449218339932223e+01 1.7480522871654479e+01 0 0 0
394 0 4 1.0000000000000000e+00 9.3383226968824804e+00 2.0459181743798052e+01 1.7814442056600083e+01 0 0 0
418 0 3 -2.0000000000000000e+00 1.1336194700990191e+01 2.2475284583894076e+01 2.1564187707403125e+01 0 0 0
369 0 2 4.0000000000000000e+00 4.8598980511160388e+00 2.1926788552946931e+01 1.6671791708608939e+01 0 0 0
387 0 3 -2.0000000000000000e+00 6.9796472393446312e+00 2.2608239478930738e+01 1.9825945501251194e+01 0 0 0
1171 0 3 -2.0000000000000000e+00 4.3400136142684831e+00 2.0805076399716391e+01 2.2412927172598359e+01 0 0 0
401 0 1 2.0000000000000000e+00 9.3579819198762166e+00 2.1786905759861639e+01 1.5582295574455253e+01 0 0 0
376 0 3 -2.0000000000000000e+00 5.4869795294863524e+00 2.1085171876777412e+01 1.5444998999868321e+01 0 0 0
400 0 1 2.0000000000000000e+00 9.9769431784484777e+00 2.1316354285713551e+01 2.2952147880711237e+01 0 0 0
544 0 1 2.0000000000000000e+00 3.9898168736053288e+00 2.2728740042557646e+01 2.0759064260831398e+01 1 0 0
1879 1 5 0.0000000000000000e+00 1.2374180083805516e+01 2.0555762658357303e+01 1.8091138203730015e+01 0 0 0
1900 1 5 0.0000000000000000e+00 1.3512244353273710e+01 1.9767442078702189e+01 2.0518343040199952e+01 0 0 0
1881 1 5 0.0000000000000000e+00 1.3913922662708885e+01 1.7908110570182437e+01 1.7532194375158646e+01 0 0 0
1859 1 5 0.0000000000000000e+00 1.4207936697681053e+01 2.1751046977956495e+01 1.6328062102013195e+01 0 0 0
1898 1 5 0.0000000000000000e+00 1.4343286824634738e+01 2.2459323243597318e+01 1.9685208891357110e+01 0 0 0
1883 1 5 0.0000000000000000e+00 1.8936909708260057e+01 1.6126059268449257e+01 1.8352625009356004e+01 0 0 0
1922 1 5 0.0000000000000000e+00 1.5833502247228353e+01 1.6233215172532603e+01 2.2004374464770379e+01 0 0 0
1901 1 5 0.0000000000000000e+00 1.5422761893057551e+01 1.7853032781771518e+01 1.9901679734845388e+01 0 0 0
1903 1 5 0.0000000000000000e+00 1.8431189958967426e+01 1.7890536910619595e+01 2.0357298148192260e+01 0 0 0
1882 1 5 0.0000000000000000e+00 1.7162514292510867e+01 1.8088534269851053e+01 1.7706422377208519e+01 0 0 0
1860 1 5 0.0000000000000000e+00 1.6709299255830761e+01 2.0239104388636889e+01 1.6073226230355093e+01 0 0 0
1878 1 5 0.0000000000000000e+00 1.6633822805335146e+01 2.2662555817331569e+01 1.7813988129075465e+01 0 0 0
1880 1 5 0.0000000000000000e+00 1.5407581133167128e+01 2.0214247033868066e+01 1.8487581743112848e+01 0 0 0
1899 1 5 0.0000000000000000e+00 1.7174814000634910e+01 2.1451124891637544e+01 2.0356797886116972e+01 0 0 0
1921 1 5 0.0000000000000000e+00 1.6761473041079185e+01 1.9177847505920958e+01 2.1971001389403995e+01 0 0 0
866 0 1 2.0000000000000000e+00 8.9478694159667835e+00 1.0252126986201972e+01 2.3097129239013825e+01 0 0 0
901 0 1 2.0000000000000000e+00 9.3896299558428620e+00 8.6016085792325061e+00 2.6892687683281427e+01 0 0 0
883 0 3 -2.0000000000000000e+00 7.5874587691736304e+00 1.1930941666319306e+01 2.3334769736450699e+01 0 0 0
879 0 3 -2.0000000000000000e+00 7.7314902760287385e+00 9.2693475633561011e+00 2.5224980786824919e+01 0 0 0
882 0 3 -2.0000000000000000e+00 5.8763198994389088e+00 1.3824876362357619e+01 2.4410051651650907e+01 0 0 0
871 0 2 4.0000000000000000e+00 6.4858345859059723e+00 9.9563471189166641e+00 2.6034202943029239e+01 0 0 0
872 0 2 4.0000000000000000e+00 6.7563289211740800e+00 1.2526026383106307e+01 2.4541169245402628e+01 0 0 0
881 0 3 -2.0000000000000000e+00 6.0252641006480498e+00 1.1287883459376800e+01 2.5275978989022903e+01 0 0 0