# Input file for Test-Specimen

2108 atoms
5 atom types

0   41 xlo xhi
0   46 ylo yhi
0   46 zlo zhi

Masses

1   40.080	#Ca
2   28.090	#Si
3   16.000	#O
4   1.000	#H
5   12.010700	# Mass of C

Atoms

1 0 1 2 8.58 0.0 0.0
2 0 1 2 8.58 3.7 0.0
3 0 1 2 8.58 3.7 9.4
4 0 1 2 8.58 0.0 9.4
5 0 1 2 7.22 1.86 4.51
6 0 1 2 7.22 5.56 4.51
7 0 2 4 5.79 2.12 1.28
8 0 2 4 5.79 5.23 1.28
9 0 2 4 4.78 7.39 3.21
10 0 2 4 5.79 1.53 8.49
11 0 2 4 4.86 3.67 6.42
12 0 2 4 5.79 5.82 8.49
13 0 3 -2 5.79 1.26 2.73
14 0 3 -2 4.48 1.88 0.43
15 0 3 -2 7.1 1.88 0.43
16 0 3 -2 5.79 6.13 2.73
17 0 3 -2 5.79 3.7 1.75
18 0 3 -2 4.48 5.47 0.43
19 0 3 -2 7.1 5.46 0.43
20 0 3 -2 4.78 7.39 4.8
21 0 3 -2 3.39 7.39 2.57
22 0 3 -2 5.79 0.0 7.92
23 0 3 -2 7.1 1.77 9.35
24 0 3 -2 4.48 1.77 9.35
25 0 3 -2 5.79 2.48 7.06
26 0 3 -2 4.95 3.7 4.85
27 0 3 -2 5.79 4.77 7.06
28 0 3 -2 4.48 5.58 9.35
29 0 3 -2 7.1 5.58 9.35
30 0 3 -2 3.42 3.7 6.97
31 0 3 -2 8.58 3.7 6.9
32 0 3 -2 8.58 0.0 2.51
33 0 4 1 9.58 3.7 6.9
34 0 4 1 8.26 4.64 6.9
35 0 4 1 9.58 0.0 2.51
36 0 4 1 8.26 0.95 2.51
37 0 1 2 14.16 3.7 0.0
38 0 1 2 14.16 7.39 0.0
39 0 1 2 14.16 7.39 9.4
40 0 1 2 14.16 3.7 9.4
41 0 1 2 12.8 5.56 4.51
42 0 1 2 12.8 9.25 4.51
43 0 2 4 11.37 5.82 1.28
44 0 2 4 11.37 8.92 1.28
45 0 2 4 10.36 11.09 3.21
46 0 2 4 11.37 5.23 8.49
47 0 2 4 10.440000000000001 7.37 6.42
48 0 2 4 11.37 9.51 8.49
49 0 3 -2 11.37 4.95 2.73
50 0 3 -2 10.059999999999999 5.58 0.43
51 0 3 -2 12.68 5.58 0.43
52 0 3 -2 11.37 9.83 2.73
53 0 3 -2 11.37 7.39 1.75
54 0 3 -2 10.059999999999999 9.16 0.43
55 0 3 -2 12.68 9.16 0.43
56 0 3 -2 10.36 11.09 4.8
57 0 3 -2 8.969999999999999 11.09 2.57
58 0 3 -2 11.37 3.7 7.92
59 0 3 -2 12.68 5.47 9.35
60 0 3 -2 10.059999999999999 5.47 9.35
61 0 3 -2 11.37 6.17 7.06
62 0 3 -2 10.530000000000001 7.39 4.85
63 0 3 -2 11.37 8.46 7.06
64 0 3 -2 10.059999999999999 9.28 9.35
65 0 3 -2 12.68 9.27 9.35
66 0 3 -2 9.0 7.39 6.97
67 0 3 -2 14.16 7.39 6.9
68 0 3 -2 14.16 3.7 2.51
69 0 4 1 15.16 7.39 6.9
70 0 4 1 13.84 8.34 6.9
71 0 4 1 15.16 3.7 2.51
72 0 4 1 13.84 4.64 2.51
73 0 1 2 11.37 1.85 11.39
74 0 1 2 11.37 5.54 11.39
75 0 1 2 11.37 5.54 20.79
76 0 1 2 11.37 1.85 20.79
77 0 1 2 10.01 3.71 15.9
78 0 1 2 10.01 7.41 15.9
79 0 2 4 8.58 3.97 12.66
80 0 2 4 8.58 7.07 12.66
81 0 2 4 7.57 9.24 14.6
82 0 2 4 8.58 3.38 19.88
83 0 2 4 7.65 5.52 17.81
84 0 2 4 8.58 7.66 19.88
85 0 3 -2 8.58 3.1 14.12
86 0 3 -2 7.27 3.73 11.82
87 0 3 -2 9.89 3.73 11.82
88 0 3 -2 8.58 7.98 14.12
89 0 3 -2 8.58 5.54 13.14
90 0 3 -2 7.27 7.31 11.82
91 0 3 -2 9.89 7.31 11.82
92 0 3 -2 7.57 9.24 16.19
93 0 3 -2 6.18 9.24 13.96
94 0 3 -2 8.58 1.85 19.31
95 0 3 -2 9.89 3.62 20.74
96 0 3 -2 7.27 3.62 20.74
97 0 3 -2 8.58 4.32 18.45
98 0 3 -2 7.74 5.54 16.24
99 0 3 -2 8.58 6.61 18.45
100 0 3 -2 7.27 7.43 20.74
101 0 3 -2 9.89 7.43 20.74
102 0 3 -2 6.21 5.55 18.36
103 0 3 -2 11.37 5.54 18.29
104 0 3 -2 11.37 1.85 13.89
105 0 4 1 12.37 5.54 18.29
106 0 4 1 11.05 6.49 18.29
107 0 4 1 12.37 1.85 13.89
108 0 4 1 11.05 2.79 13.89
109 0 1 2 16.95 5.54 11.39
110 0 1 2 16.95 9.24 11.39
111 0 1 2 16.95 9.24 20.79
112 0 1 2 16.95 5.54 20.79
113 0 1 2 15.59 7.41 15.9
114 0 1 2 15.59 11.1 15.9
115 0 2 4 14.16 7.66 12.66
116 0 2 4 14.16 10.77 12.66
117 0 2 4 13.15 12.93 14.6
118 0 2 4 14.16 7.07 19.88
119 0 2 4 13.23 9.22 17.81
120 0 2 4 14.16 11.36 19.88
121 0 3 -2 14.16 6.8 14.12
122 0 3 -2 12.85 7.42 11.82
123 0 3 -2 15.47 7.43 11.82
124 0 3 -2 14.16 11.68 14.12
125 0 3 -2 14.16 9.24 13.14
126 0 3 -2 12.85 11.01 11.82
127 0 3 -2 15.47 11.0 11.82
128 0 3 -2 13.15 12.93 16.19
129 0 3 -2 11.76 12.93 13.96
130 0 3 -2 14.16 5.54 19.31
131 0 3 -2 15.47 7.32 20.74
132 0 3 -2 12.85 7.31 20.74
133 0 3 -2 14.16 8.02 18.45
134 0 3 -2 13.32 9.24 16.24
135 0 3 -2 14.16 10.31 18.45
136 0 3 -2 12.85 11.13 20.74
137 0 3 -2 15.47 11.12 20.74
138 0 3 -2 11.79 9.24 18.36
139 0 3 -2 16.95 9.24 18.29
140 0 3 -2 16.95 5.54 13.89
141 0 4 1 17.95 9.24 18.29
142 0 4 1 16.630000000000003 10.18 18.29
143 0 4 1 17.95 5.54 13.89
144 0 4 1 16.630000000000003 6.49 13.89
145 0 1 2 26.58 0.0 0.0
146 0 1 2 26.58 3.7 0.0
147 0 1 2 26.58 3.7 9.4
148 0 1 2 26.58 0.0 9.4
149 0 1 2 25.22 1.86 4.51
150 0 1 2 25.22 5.56 4.51
151 0 2 4 23.79 2.12 1.28
152 0 2 4 23.79 5.23 1.28
153 0 2 4 22.78 7.39 3.21
154 0 2 4 23.79 1.53 8.49
155 0 2 4 22.86 3.67 6.42
156 0 2 4 23.79 5.82 8.49
157 0 3 -2 23.79 1.26 2.73
158 0 3 -2 22.48 1.88 0.43
159 0 3 -2 25.1 1.88 0.43
160 0 3 -2 23.79 6.13 2.73
161 0 3 -2 23.79 3.7 1.75
162 0 3 -2 22.48 5.47 0.43
163 0 3 -2 25.1 5.46 0.43
164 0 3 -2 22.78 7.39 4.8
165 0 3 -2 21.39 7.39 2.57
166 0 3 -2 23.79 0.0 7.92
167 0 3 -2 25.1 1.77 9.35
168 0 3 -2 22.48 1.77 9.35
169 0 3 -2 23.79 2.48 7.06
170 0 3 -2 22.95 3.7 4.85
171 0 3 -2 23.79 4.77 7.06
172 0 3 -2 22.48 5.58 9.35
173 0 3 -2 25.1 5.58 9.35
174 0 3 -2 21.42 3.7 6.97
175 0 3 -2 26.58 3.7 6.9
176 0 3 -2 26.58 0.0 2.51
177 0 4 1 27.58 3.7 6.9
178 0 4 1 26.259999999999998 4.64 6.9
179 0 4 1 27.58 0.0 2.51
180 0 4 1 26.259999999999998 0.95 2.51
181 0 1 2 32.16 3.7 0.0
182 0 1 2 32.16 7.39 0.0
183 0 1 2 32.16 7.39 9.4
184 0 1 2 32.16 3.7 9.4
185 0 1 2 30.8 5.56 4.51
186 0 1 2 30.8 9.25 4.51
187 0 2 4 29.369999999999997 5.82 1.28
188 0 2 4 29.369999999999997 8.92 1.28
189 0 2 4 28.36 11.09 3.21
190 0 2 4 29.369999999999997 5.23 8.49
191 0 2 4 28.44 7.37 6.42
192 0 2 4 29.369999999999997 9.51 8.49
193 0 3 -2 29.369999999999997 4.95 2.73
194 0 3 -2 28.06 5.58 0.43
195 0 3 -2 30.68 5.58 0.43
196 0 3 -2 29.369999999999997 9.83 2.73
197 0 3 -2 29.369999999999997 7.39 1.75
198 0 3 -2 28.06 9.16 0.43
199 0 3 -2 30.68 9.16 0.43
200 0 3 -2 28.36 11.09 4.8
201 0 3 -2 26.97 11.09 2.57
202 0 3 -2 29.369999999999997 3.7 7.92
203 0 3 -2 30.68 5.47 9.35
204 0 3 -2 28.06 5.47 9.35
205 0 3 -2 29.369999999999997 6.17 7.06
206 0 3 -2 28.53 7.39 4.85
207 0 3 -2 29.369999999999997 8.46 7.06
208 0 3 -2 28.06 9.28 9.35
209 0 3 -2 30.68 9.27 9.35
210 0 3 -2 27.0 7.39 6.97
211 0 3 -2 32.16 7.39 6.9
212 0 3 -2 32.16 3.7 2.51
213 0 4 1 33.16 7.39 6.9
214 0 4 1 31.84 8.34 6.9
215 0 4 1 33.16 3.7 2.51
216 0 4 1 31.84 4.64 2.51
217 0 1 2 29.369999999999997 1.85 11.39
218 0 1 2 29.369999999999997 5.54 11.39
219 0 1 2 29.369999999999997 5.54 20.79
220 0 1 2 29.369999999999997 1.85 20.79
221 0 1 2 28.009999999999998 3.71 15.9
222 0 1 2 28.009999999999998 7.41 15.9
223 0 2 4 26.58 3.97 12.66
224 0 2 4 26.58 7.07 12.66
225 0 2 4 25.57 9.24 14.6
226 0 2 4 26.58 3.38 19.88
227 0 2 4 25.65 5.52 17.81
228 0 2 4 26.58 7.66 19.88
229 0 3 -2 26.58 3.1 14.12
230 0 3 -2 25.27 3.73 11.82
231 0 3 -2 27.89 3.73 11.82
232 0 3 -2 26.58 7.98 14.12
233 0 3 -2 26.58 5.54 13.14
234 0 3 -2 25.27 7.31 11.82
235 0 3 -2 27.89 7.31 11.82
236 0 3 -2 25.57 9.24 16.19
237 0 3 -2 24.18 9.24 13.96
238 0 3 -2 26.58 1.85 19.31
239 0 3 -2 27.89 3.62 20.74
240 0 3 -2 25.27 3.62 20.74
241 0 3 -2 26.58 4.32 18.45
242 0 3 -2 25.740000000000002 5.54 16.24
243 0 3 -2 26.58 6.61 18.45
244 0 3 -2 25.27 7.43 20.74
245 0 3 -2 27.89 7.43 20.74
246 0 3 -2 24.21 5.55 18.36
247 0 3 -2 29.369999999999997 5.54 18.29
248 0 3 -2 29.369999999999997 1.85 13.89
249 0 4 1 30.369999999999997 5.54 18.29
250 0 4 1 29.05 6.49 18.29
251 0 4 1 30.369999999999997 1.85 13.89
252 0 4 1 29.05 2.79 13.89
253 0 1 2 34.95 5.54 11.39
254 0 1 2 34.95 9.24 11.39
255 0 1 2 34.95 9.24 20.79
256 0 1 2 34.95 5.54 20.79
257 0 1 2 33.59 7.41 15.9
258 0 1 2 33.59 11.1 15.9
259 0 2 4 32.16 7.66 12.66
260 0 2 4 32.16 10.77 12.66
261 0 2 4 31.15 12.93 14.6
262 0 2 4 32.16 7.07 19.88
263 0 2 4 31.23 9.22 17.81
264 0 2 4 32.16 11.36 19.88
265 0 3 -2 32.16 6.8 14.12
266 0 3 -2 30.85 7.42 11.82
267 0 3 -2 33.47 7.43 11.82
268 0 3 -2 32.16 11.68 14.12
269 0 3 -2 32.16 9.24 13.14
270 0 3 -2 30.85 11.01 11.82
271 0 3 -2 33.47 11.0 11.82
272 0 3 -2 31.15 12.93 16.19
273 0 3 -2 29.759999999999998 12.93 13.96
274 0 3 -2 32.16 5.54 19.31
275 0 3 -2 33.47 7.32 20.74
276 0 3 -2 30.85 7.31 20.74
277 0 3 -2 32.16 8.02 18.45
278 0 3 -2 31.32 9.24 16.24
279 0 3 -2 32.16 10.31 18.45
280 0 3 -2 30.85 11.13 20.74
281 0 3 -2 33.47 11.12 20.74
282 0 3 -2 29.79 9.24 18.36
283 0 3 -2 34.95 9.24 18.29
284 0 3 -2 34.95 5.54 13.89
285 0 4 1 35.95 9.24 18.29
286 0 4 1 34.63 10.18 18.29
287 0 4 1 35.95 5.54 13.89
288 0 4 1 34.63 6.49 13.89
289 0 1 2 5.58 15.0 0.0
290 0 1 2 5.58 18.7 0.0
291 0 1 2 5.58 18.7 9.4
292 0 1 2 5.58 15.0 9.4
293 0 1 2 4.22 16.86 4.51
294 0 1 2 4.22 20.56 4.51
295 0 2 4 2.79 17.12 1.28
296 0 2 4 2.79 20.23 1.28
297 0 2 4 1.78 22.39 3.21
298 0 2 4 2.79 16.53 8.49
299 0 2 4 1.86 18.67 6.42
300 0 2 4 2.79 20.82 8.49
301 0 3 -2 2.79 16.26 2.73
302 0 3 -2 1.48 16.88 0.43
303 0 3 -2 4.1 16.88 0.43
304 0 3 -2 2.79 21.13 2.73
305 0 3 -2 2.79 18.7 1.75
306 0 3 -2 1.48 20.47 0.43
307 0 3 -2 4.1 20.46 0.43
308 0 3 -2 1.78 22.39 4.8
309 0 3 -2 0.39 22.39 2.57
310 0 3 -2 2.79 15.0 7.92
311 0 3 -2 4.1 16.77 9.35
312 0 3 -2 1.48 16.77 9.35
313 0 3 -2 2.79 17.48 7.06
314 0 3 -2 1.95 18.7 4.85
315 0 3 -2 2.79 19.77 7.06
316 0 3 -2 1.48 20.58 9.35
317 0 3 -2 4.1 20.58 9.35
318 0 3 -2 0.42 18.7 6.97
319 0 3 -2 5.58 18.7 6.9
320 0 3 -2 5.58 15.0 2.51
321 0 4 1 6.58 18.7 6.9
322 0 4 1 5.26 19.64 6.9
323 0 4 1 6.58 15.0 2.51
324 0 4 1 5.26 15.95 2.51
325 0 1 2 11.16 18.7 0.0
326 0 1 2 11.16 22.39 0.0
327 0 1 2 11.16 22.39 9.4
328 0 1 2 11.16 18.7 9.4
329 0 1 2 9.8 20.56 4.51
330 0 1 2 9.8 24.25 4.51
331 0 2 4 8.37 20.82 1.28
332 0 2 4 8.37 23.92 1.28
333 0 2 4 7.36 26.09 3.21
334 0 2 4 8.37 20.23 8.49
335 0 2 4 7.44 22.37 6.42
336 0 2 4 8.37 24.509999999999998 8.49
337 0 3 -2 8.37 19.95 2.73
338 0 3 -2 7.06 20.58 0.43
339 0 3 -2 9.68 20.58 0.43
340 0 3 -2 8.37 24.83 2.73
341 0 3 -2 8.37 22.39 1.75
342 0 3 -2 7.06 24.16 0.43
343 0 3 -2 9.68 24.16 0.43
344 0 3 -2 7.36 26.09 4.8
345 0 3 -2 5.97 26.09 2.57
346 0 3 -2 8.37 18.7 7.92
347 0 3 -2 9.68 20.47 9.35
348 0 3 -2 7.06 20.47 9.35
349 0 3 -2 8.37 21.17 7.06
350 0 3 -2 7.53 22.39 4.85
351 0 3 -2 8.37 23.46 7.06
352 0 3 -2 7.06 24.28 9.35
353 0 3 -2 9.68 24.27 9.35
354 0 3 -2 6.0 22.39 6.97
355 0 3 -2 11.16 22.39 6.9
356 0 3 -2 11.16 18.7 2.51
357 0 4 1 12.16 22.39 6.9
358 0 4 1 10.84 23.34 6.9
359 0 4 1 12.16 18.7 2.51
360 0 4 1 10.84 19.64 2.51
361 0 1 2 8.37 16.85 11.39
362 0 1 2 8.37 20.54 11.39
363 0 1 2 8.37 20.54 20.79
364 0 1 2 8.37 16.85 20.79
365 0 1 2 7.01 18.71 15.9
366 0 1 2 7.01 22.41 15.9
367 0 2 4 5.58 18.97 12.66
368 0 2 4 5.58 22.07 12.66
369 0 2 4 4.57 24.240000000000002 14.6
370 0 2 4 5.58 18.38 19.88
371 0 2 4 4.65 20.52 17.81
372 0 2 4 5.58 22.66 19.88
373 0 3 -2 5.58 18.1 14.12
374 0 3 -2 4.27 18.73 11.82
375 0 3 -2 6.89 18.73 11.82
376 0 3 -2 5.58 22.98 14.12
377 0 3 -2 5.58 20.54 13.14
378 0 3 -2 4.27 22.31 11.82
379 0 3 -2 6.89 22.31 11.82
380 0 3 -2 4.57 24.240000000000002 16.19
381 0 3 -2 3.18 24.240000000000002 13.96
382 0 3 -2 5.58 16.85 19.31
383 0 3 -2 6.89 18.62 20.74
384 0 3 -2 4.27 18.62 20.74
385 0 3 -2 5.58 19.32 18.45
386 0 3 -2 4.74 20.54 16.24
387 0 3 -2 5.58 21.61 18.45
388 0 3 -2 4.27 22.43 20.74
389 0 3 -2 6.89 22.43 20.74
390 0 3 -2 3.21 20.55 18.36
391 0 3 -2 8.37 20.54 18.29
392 0 3 -2 8.37 16.85 13.89
393 0 4 1 9.37 20.54 18.29
394 0 4 1 8.05 21.490000000000002 18.29
395 0 4 1 9.37 16.85 13.89
396 0 4 1 8.05 17.79 13.89
397 0 1 2 13.95 20.54 11.39
398 0 1 2 13.95 24.240000000000002 11.39
399 0 1 2 13.95 24.240000000000002 20.79
400 0 1 2 13.95 20.54 20.79
401 0 1 2 12.59 22.41 15.9
402 0 1 2 12.59 26.1 15.9
403 0 2 4 11.16 22.66 12.66
404 0 2 4 11.16 25.77 12.66
405 0 2 4 10.15 27.93 14.6
406 0 2 4 11.16 22.07 19.88
407 0 2 4 10.23 24.22 17.81
408 0 2 4 11.16 26.36 19.88
409 0 3 -2 11.16 21.8 14.12
410 0 3 -2 9.85 22.42 11.82
411 0 3 -2 12.47 22.43 11.82
412 0 3 -2 11.16 26.68 14.12
413 0 3 -2 11.16 24.240000000000002 13.14
414 0 3 -2 9.85 26.009999999999998 11.82
415 0 3 -2 12.47 26.0 11.82
416 0 3 -2 10.15 27.93 16.19
417 0 3 -2 8.76 27.93 13.96
418 0 3 -2 11.16 20.54 19.31
419 0 3 -2 12.47 22.32 20.74
420 0 3 -2 9.85 22.31 20.74
421 0 3 -2 11.16 23.02 18.45
422 0 3 -2 10.32 24.240000000000002 16.24
423 0 3 -2 11.16 25.310000000000002 18.45
424 0 3 -2 9.85 26.130000000000003 20.74
425 0 3 -2 12.47 26.119999999999997 20.74
426 0 3 -2 8.79 24.240000000000002 18.36
427 0 3 -2 13.95 24.240000000000002 18.29
428 0 3 -2 13.95 20.54 13.89
429 0 4 1 14.95 24.240000000000002 18.29
430 0 4 1 13.63 25.18 18.29
431 0 4 1 14.95 20.54 13.89
432 0 4 1 13.63 21.490000000000002 13.89
433 0 1 2 30.58 17.0 0.0
434 0 1 2 30.58 20.7 0.0
435 0 1 2 30.58 20.7 9.4
436 0 1 2 30.58 17.0 9.4
437 0 1 2 29.22 18.86 4.51
438 0 1 2 29.22 22.56 4.51
439 0 2 4 27.79 19.12 1.28
440 0 2 4 27.79 22.23 1.28
441 0 2 4 26.78 24.39 3.21
442 0 2 4 27.79 18.53 8.49
443 0 2 4 26.86 20.67 6.42
444 0 2 4 27.79 22.82 8.49
445 0 3 -2 27.79 18.26 2.73
446 0 3 -2 26.48 18.88 0.43
447 0 3 -2 29.1 18.88 0.43
448 0 3 -2 27.79 23.13 2.73
449 0 3 -2 27.79 20.7 1.75
450 0 3 -2 26.48 22.47 0.43
451 0 3 -2 29.1 22.46 0.43
452 0 3 -2 26.78 24.39 4.8
453 0 3 -2 25.39 24.39 2.57
454 0 3 -2 27.79 17.0 7.92
455 0 3 -2 29.1 18.77 9.35
456 0 3 -2 26.48 18.77 9.35
457 0 3 -2 27.79 19.48 7.06
458 0 3 -2 26.95 20.7 4.85
459 0 3 -2 27.79 21.77 7.06
460 0 3 -2 26.48 22.58 9.35
461 0 3 -2 29.1 22.58 9.35
462 0 3 -2 25.42 20.7 6.97
463 0 3 -2 30.58 20.7 6.9
464 0 3 -2 30.58 17.0 2.51
465 0 4 1 31.58 20.7 6.9
466 0 4 1 30.259999999999998 21.64 6.9
467 0 4 1 31.58 17.0 2.51
468 0 4 1 30.259999999999998 17.95 2.51
469 0 1 2 36.16 20.7 0.0
470 0 1 2 36.16 24.39 0.0
471 0 1 2 36.16 24.39 9.4
472 0 1 2 36.16 20.7 9.4
473 0 1 2 34.8 22.56 4.51
474 0 1 2 34.8 26.25 4.51
475 0 2 4 33.37 22.82 1.28
476 0 2 4 33.37 25.92 1.28
477 0 2 4 32.36 28.09 3.21
478 0 2 4 33.37 22.23 8.49
479 0 2 4 32.44 24.37 6.42
480 0 2 4 33.37 26.509999999999998 8.49
481 0 3 -2 33.37 21.95 2.73
482 0 3 -2 32.06 22.58 0.43
483 0 3 -2 34.68 22.58 0.43
484 0 3 -2 33.37 26.83 2.73
485 0 3 -2 33.37 24.39 1.75
486 0 3 -2 32.06 26.16 0.43
487 0 3 -2 34.68 26.16 0.43
488 0 3 -2 32.36 28.09 4.8
489 0 3 -2 30.97 28.09 2.57
490 0 3 -2 33.37 20.7 7.92
491 0 3 -2 34.68 22.47 9.35
492 0 3 -2 32.06 22.47 9.35
493 0 3 -2 33.37 23.17 7.06
494 0 3 -2 32.53 24.39 4.85
495 0 3 -2 33.37 25.46 7.06
496 0 3 -2 32.06 26.28 9.35
497 0 3 -2 34.68 26.27 9.35
498 0 3 -2 31.0 24.39 6.97
499 0 3 -2 36.16 24.39 6.9
500 0 3 -2 36.16 20.7 2.51
501 0 4 1 37.16 24.39 6.9
502 0 4 1 35.84 25.34 6.9
503 0 4 1 37.16 20.7 2.51
504 0 4 1 35.84 21.64 2.51
505 0 1 2 33.37 18.85 11.39
506 0 1 2 33.37 22.54 11.39
507 0 1 2 33.37 22.54 20.79
508 0 1 2 33.37 18.85 20.79
509 0 1 2 32.01 20.71 15.9
510 0 1 2 32.01 24.41 15.9
511 0 2 4 30.58 20.97 12.66
512 0 2 4 30.58 24.07 12.66
513 0 2 4 29.57 26.240000000000002 14.6
514 0 2 4 30.58 20.38 19.88
515 0 2 4 29.65 22.52 17.81
516 0 2 4 30.58 24.66 19.88
517 0 3 -2 30.58 20.1 14.12
518 0 3 -2 29.27 20.73 11.82
519 0 3 -2 31.89 20.73 11.82
520 0 3 -2 30.58 24.98 14.12
521 0 3 -2 30.58 22.54 13.14
522 0 3 -2 29.27 24.31 11.82
523 0 3 -2 31.89 24.31 11.82
524 0 3 -2 29.57 26.240000000000002 16.19
525 0 3 -2 28.18 26.240000000000002 13.96
526 0 3 -2 30.58 18.85 19.31
527 0 3 -2 31.89 20.62 20.74
528 0 3 -2 29.27 20.62 20.74
529 0 3 -2 30.58 21.32 18.45
530 0 3 -2 29.740000000000002 22.54 16.24
531 0 3 -2 30.58 23.61 18.45
532 0 3 -2 29.27 24.43 20.74
533 0 3 -2 31.89 24.43 20.74
534 0 3 -2 28.21 22.55 18.36
535 0 3 -2 33.37 22.54 18.29
536 0 3 -2 33.37 18.85 13.89
537 0 4 1 34.37 22.54 18.29
538 0 4 1 33.05 23.490000000000002 18.29
539 0 4 1 34.37 18.85 13.89
540 0 4 1 33.05 19.79 13.89
541 0 1 2 38.95 22.54 11.39
542 0 1 2 38.95 26.240000000000002 11.39
543 0 1 2 38.95 26.240000000000002 20.79
544 0 1 2 38.95 22.54 20.79
545 0 1 2 37.59 24.41 15.9
546 0 1 2 37.59 28.1 15.9
547 0 2 4 36.16 24.66 12.66
548 0 2 4 36.16 27.77 12.66
549 0 2 4 35.15 29.93 14.6
550 0 2 4 36.16 24.07 19.88
551 0 2 4 35.230000000000004 26.22 17.81
552 0 2 4 36.16 28.36 19.88
553 0 3 -2 36.16 23.8 14.12
554 0 3 -2 34.85 24.42 11.82
555 0 3 -2 37.47 24.43 11.82
556 0 3 -2 36.16 28.68 14.12
557 0 3 -2 36.16 26.240000000000002 13.14
558 0 3 -2 34.85 28.009999999999998 11.82
559 0 3 -2 37.47 28.0 11.82
560 0 3 -2 35.15 29.93 16.19
561 0 3 -2 33.76 29.93 13.96
562 0 3 -2 36.16 22.54 19.31
563 0 3 -2 37.47 24.32 20.74
564 0 3 -2 34.85 24.31 20.74
565 0 3 -2 36.16 25.02 18.45
566 0 3 -2 35.32 26.240000000000002 16.24
567 0 3 -2 36.16 27.310000000000002 18.45
568 0 3 -2 34.85 28.130000000000003 20.74
569 0 3 -2 37.47 28.119999999999997 20.74
570 0 3 -2 33.79 26.240000000000002 18.36
571 0 3 -2 38.95 26.240000000000002 18.29
572 0 3 -2 38.95 22.54 13.89
573 0 4 1 39.95 26.240000000000002 18.29
574 0 4 1 38.63 27.18 18.29
575 0 4 1 39.95 22.54 13.89
576 0 4 1 38.63 23.490000000000002 13.89
577 0 1 2 8.58 32.0 0.0
578 0 1 2 8.58 35.7 0.0
579 0 1 2 8.58 35.7 9.4
580 0 1 2 8.58 32.0 9.4
581 0 1 2 7.22 33.86 4.51
582 0 1 2 7.22 37.56 4.51
583 0 2 4 5.79 34.12 1.28
584 0 2 4 5.79 37.230000000000004 1.28
585 0 2 4 4.78 39.39 3.21
586 0 2 4 5.79 33.53 8.49
587 0 2 4 4.86 35.67 6.42
588 0 2 4 5.79 37.82 8.49
589 0 3 -2 5.79 33.26 2.73
590 0 3 -2 4.48 33.88 0.43
591 0 3 -2 7.1 33.88 0.43
592 0 3 -2 5.79 38.13 2.73
593 0 3 -2 5.79 35.7 1.75
594 0 3 -2 4.48 37.47 0.43
595 0 3 -2 7.1 37.46 0.43
596 0 3 -2 4.78 39.39 4.8
597 0 3 -2 3.39 39.39 2.57
598 0 3 -2 5.79 32.0 7.92
599 0 3 -2 7.1 33.77 9.35
600 0 3 -2 4.48 33.77 9.35
601 0 3 -2 5.79 34.48 7.06
602 0 3 -2 4.95 35.7 4.85
603 0 3 -2 5.79 36.769999999999996 7.06
604 0 3 -2 4.48 37.58 9.35
605 0 3 -2 7.1 37.58 9.35
606 0 3 -2 3.42 35.7 6.97
607 0 3 -2 8.58 35.7 6.9
608 0 3 -2 8.58 32.0 2.51
609 0 4 1 9.58 35.7 6.9
610 0 4 1 8.26 36.64 6.9
611 0 4 1 9.58 32.0 2.51
612 0 4 1 8.26 32.95 2.51
613 0 1 2 14.16 35.7 0.0
614 0 1 2 14.16 39.39 0.0
615 0 1 2 14.16 39.39 9.4
616 0 1 2 14.16 35.7 9.4
617 0 1 2 12.8 37.56 4.51
618 0 1 2 12.8 41.25 4.51
619 0 2 4 11.37 37.82 1.28
620 0 2 4 11.37 40.92 1.28
621 0 2 4 10.36 43.09 3.21
622 0 2 4 11.37 37.230000000000004 8.49
623 0 2 4 10.440000000000001 39.37 6.42
624 0 2 4 11.37 41.51 8.49
625 0 3 -2 11.37 36.95 2.73
626 0 3 -2 10.059999999999999 37.58 0.43
627 0 3 -2 12.68 37.58 0.43
628 0 3 -2 11.37 41.83 2.73
629 0 3 -2 11.37 39.39 1.75
630 0 3 -2 10.059999999999999 41.16 0.43
631 0 3 -2 12.68 41.16 0.43
632 0 3 -2 10.36 43.09 4.8
633 0 3 -2 8.969999999999999 43.09 2.57
634 0 3 -2 11.37 35.7 7.92
635 0 3 -2 12.68 37.47 9.35
636 0 3 -2 10.059999999999999 37.47 9.35
637 0 3 -2 11.37 38.17 7.06
638 0 3 -2 10.530000000000001 39.39 4.85
639 0 3 -2 11.37 40.46 7.06
640 0 3 -2 10.059999999999999 41.28 9.35
641 0 3 -2 12.68 41.269999999999996 9.35
642 0 3 -2 9.0 39.39 6.97
643 0 3 -2 14.16 39.39 6.9
644 0 3 -2 14.16 35.7 2.51
645 0 4 1 15.16 39.39 6.9
646 0 4 1 13.84 40.34 6.9
647 0 4 1 15.16 35.7 2.51
648 0 4 1 13.84 36.64 2.51
649 0 1 2 11.37 33.85 11.39
650 0 1 2 11.37 37.54 11.39
651 0 1 2 11.37 37.54 20.79
652 0 1 2 11.37 33.85 20.79
653 0 1 2 10.01 35.71 15.9
654 0 1 2 10.01 39.41 15.9
655 0 2 4 8.58 35.97 12.66
656 0 2 4 8.58 39.07 12.66
657 0 2 4 7.57 41.24 14.6
658 0 2 4 8.58 35.38 19.88
659 0 2 4 7.65 37.519999999999996 17.81
660 0 2 4 8.58 39.66 19.88
661 0 3 -2 8.58 35.1 14.12
662 0 3 -2 7.27 35.73 11.82
663 0 3 -2 9.89 35.73 11.82
664 0 3 -2 8.58 39.980000000000004 14.12
665 0 3 -2 8.58 37.54 13.14
666 0 3 -2 7.27 39.31 11.82
667 0 3 -2 9.89 39.31 11.82
668 0 3 -2 7.57 41.24 16.19
669 0 3 -2 6.18 41.24 13.96
670 0 3 -2 8.58 33.85 19.31
671 0 3 -2 9.89 35.62 20.74
672 0 3 -2 7.27 35.62 20.74
673 0 3 -2 8.58 36.32 18.45
674 0 3 -2 7.74 37.54 16.24
675 0 3 -2 8.58 38.61 18.45
676 0 3 -2 7.27 39.43 20.74
677 0 3 -2 9.89 39.43 20.74
678 0 3 -2 6.21 37.55 18.36
679 0 3 -2 11.37 37.54 18.29
680 0 3 -2 11.37 33.85 13.89
681 0 4 1 12.37 37.54 18.29
682 0 4 1 11.05 38.49 18.29
683 0 4 1 12.37 33.85 13.89
684 0 4 1 11.05 34.79 13.89
685 0 1 2 16.95 37.54 11.39
686 0 1 2 16.95 41.24 11.39
687 0 1 2 16.95 41.24 20.79
688 0 1 2 16.95 37.54 20.79
689 0 1 2 15.59 39.41 15.9
690 0 1 2 15.59 43.1 15.9
691 0 2 4 14.16 39.66 12.66
692 0 2 4 14.16 42.769999999999996 12.66
693 0 2 4 13.15 44.93 14.6
694 0 2 4 14.16 39.07 19.88
695 0 2 4 13.23 41.22 17.81
696 0 2 4 14.16 43.36 19.88
697 0 3 -2 14.16 38.8 14.12
698 0 3 -2 12.85 39.42 11.82
699 0 3 -2 15.47 39.43 11.82
700 0 3 -2 14.16 43.68 14.12
701 0 3 -2 14.16 41.24 13.14
702 0 3 -2 12.85 43.01 11.82
703 0 3 -2 15.47 43.0 11.82
704 0 3 -2 13.15 44.93 16.19
705 0 3 -2 11.76 44.93 13.96
706 0 3 -2 14.16 37.54 19.31
707 0 3 -2 15.47 39.32 20.74
708 0 3 -2 12.85 39.31 20.74
709 0 3 -2 14.16 40.019999999999996 18.45
710 0 3 -2 13.32 41.24 16.24
711 0 3 -2 14.16 42.31 18.45
712 0 3 -2 12.85 43.13 20.74
713 0 3 -2 15.47 43.12 20.74
714 0 3 -2 11.79 41.24 18.36
715 0 3 -2 16.95 41.24 18.29
716 0 3 -2 16.95 37.54 13.89
717 0 4 1 17.95 41.24 18.29
718 0 4 1 16.630000000000003 42.18 18.29
719 0 4 1 17.95 37.54 13.89
720 0 4 1 16.630000000000003 38.49 13.89
721 0 1 2 26.58 32.0 0.0
722 0 1 2 26.58 35.7 0.0
723 0 1 2 26.58 35.7 9.4
724 0 1 2 26.58 32.0 9.4
725 0 1 2 25.22 33.86 4.51
726 0 1 2 25.22 37.56 4.51
727 0 2 4 23.79 34.12 1.28
728 0 2 4 23.79 37.230000000000004 1.28
729 0 2 4 22.78 39.39 3.21
730 0 2 4 23.79 33.53 8.49
731 0 2 4 22.86 35.67 6.42
732 0 2 4 23.79 37.82 8.49
733 0 3 -2 23.79 33.26 2.73
734 0 3 -2 22.48 33.88 0.43
735 0 3 -2 25.1 33.88 0.43
736 0 3 -2 23.79 38.13 2.73
737 0 3 -2 23.79 35.7 1.75
738 0 3 -2 22.48 37.47 0.43
739 0 3 -2 25.1 37.46 0.43
740 0 3 -2 22.78 39.39 4.8
741 0 3 -2 21.39 39.39 2.57
742 0 3 -2 23.79 32.0 7.92
743 0 3 -2 25.1 33.77 9.35
744 0 3 -2 22.48 33.77 9.35
745 0 3 -2 23.79 34.48 7.06
746 0 3 -2 22.95 35.7 4.85
747 0 3 -2 23.79 36.769999999999996 7.06
748 0 3 -2 22.48 37.58 9.35
749 0 3 -2 25.1 37.58 9.35
750 0 3 -2 21.42 35.7 6.97
751 0 3 -2 26.58 35.7 6.9
752 0 3 -2 26.58 32.0 2.51
753 0 4 1 27.58 35.7 6.9
754 0 4 1 26.259999999999998 36.64 6.9
755 0 4 1 27.58 32.0 2.51
756 0 4 1 26.259999999999998 32.95 2.51
757 0 1 2 32.16 35.7 0.0
758 0 1 2 32.16 39.39 0.0
759 0 1 2 32.16 39.39 9.4
760 0 1 2 32.16 35.7 9.4
761 0 1 2 30.8 37.56 4.51
762 0 1 2 30.8 41.25 4.51
763 0 2 4 29.369999999999997 37.82 1.28
764 0 2 4 29.369999999999997 40.92 1.28
765 0 2 4 28.36 43.09 3.21
766 0 2 4 29.369999999999997 37.230000000000004 8.49
767 0 2 4 28.44 39.37 6.42
768 0 2 4 29.369999999999997 41.51 8.49
769 0 3 -2 29.369999999999997 36.95 2.73
770 0 3 -2 28.06 37.58 0.43
771 0 3 -2 30.68 37.58 0.43
772 0 3 -2 29.369999999999997 41.83 2.73
773 0 3 -2 29.369999999999997 39.39 1.75
774 0 3 -2 28.06 41.16 0.43
775 0 3 -2 30.68 41.16 0.43
776 0 3 -2 28.36 43.09 4.8
777 0 3 -2 26.97 43.09 2.57
778 0 3 -2 29.369999999999997 35.7 7.92
779 0 3 -2 30.68 37.47 9.35
780 0 3 -2 28.06 37.47 9.35
781 0 3 -2 29.369999999999997 38.17 7.06
782 0 3 -2 28.53 39.39 4.85
783 0 3 -2 29.369999999999997 40.46 7.06
784 0 3 -2 28.06 41.28 9.35
785 0 3 -2 30.68 41.269999999999996 9.35
786 0 3 -2 27.0 39.39 6.97
787 0 3 -2 32.16 39.39 6.9
788 0 3 -2 32.16 35.7 2.51
789 0 4 1 33.16 39.39 6.9
790 0 4 1 31.84 40.34 6.9
791 0 4 1 33.16 35.7 2.51
792 0 4 1 31.84 36.64 2.51
793 0 1 2 29.369999999999997 33.85 11.39
794 0 1 2 29.369999999999997 37.54 11.39
795 0 1 2 29.369999999999997 37.54 20.79
796 0 1 2 29.369999999999997 33.85 20.79
797 0 1 2 28.009999999999998 35.71 15.9
798 0 1 2 28.009999999999998 39.41 15.9
799 0 2 4 26.58 35.97 12.66
800 0 2 4 26.58 39.07 12.66
801 0 2 4 25.57 41.24 14.6
802 0 2 4 26.58 35.38 19.88
803 0 2 4 25.65 37.519999999999996 17.81
804 0 2 4 26.58 39.66 19.88
805 0 3 -2 26.58 35.1 14.12
806 0 3 -2 25.27 35.73 11.82
807 0 3 -2 27.89 35.73 11.82
808 0 3 -2 26.58 39.980000000000004 14.12
809 0 3 -2 26.58 37.54 13.14
810 0 3 -2 25.27 39.31 11.82
811 0 3 -2 27.89 39.31 11.82
812 0 3 -2 25.57 41.24 16.19
813 0 3 -2 24.18 41.24 13.96
814 0 3 -2 26.58 33.85 19.31
815 0 3 -2 27.89 35.62 20.74
816 0 3 -2 25.27 35.62 20.74
817 0 3 -2 26.58 36.32 18.45
818 0 3 -2 25.740000000000002 37.54 16.24
819 0 3 -2 26.58 38.61 18.45
820 0 3 -2 25.27 39.43 20.74
821 0 3 -2 27.89 39.43 20.74
822 0 3 -2 24.21 37.55 18.36
823 0 3 -2 29.369999999999997 37.54 18.29
824 0 3 -2 29.369999999999997 33.85 13.89
825 0 4 1 30.369999999999997 37.54 18.29
826 0 4 1 29.05 38.49 18.29
827 0 4 1 30.369999999999997 33.85 13.89
828 0 4 1 29.05 34.79 13.89
829 0 1 2 34.95 37.54 11.39
830 0 1 2 34.95 41.24 11.39
831 0 1 2 34.95 41.24 20.79
832 0 1 2 34.95 37.54 20.79
833 0 1 2 33.59 39.41 15.9
834 0 1 2 33.59 43.1 15.9
835 0 2 4 32.16 39.66 12.66
836 0 2 4 32.16 42.769999999999996 12.66
837 0 2 4 31.15 44.93 14.6
838 0 2 4 32.16 39.07 19.88
839 0 2 4 31.23 41.22 17.81
840 0 2 4 32.16 43.36 19.88
841 0 3 -2 32.16 38.8 14.12
842 0 3 -2 30.85 39.42 11.82
843 0 3 -2 33.47 39.43 11.82
844 0 3 -2 32.16 43.68 14.12
845 0 3 -2 32.16 41.24 13.14
846 0 3 -2 30.85 43.01 11.82
847 0 3 -2 33.47 43.0 11.82
848 0 3 -2 31.15 44.93 16.19
849 0 3 -2 29.759999999999998 44.93 13.96
850 0 3 -2 32.16 37.54 19.31
851 0 3 -2 33.47 39.32 20.74
852 0 3 -2 30.85 39.31 20.74
853 0 3 -2 32.16 40.019999999999996 18.45
854 0 3 -2 31.32 41.24 16.24
855 0 3 -2 32.16 42.31 18.45
856 0 3 -2 30.85 43.13 20.74
857 0 3 -2 33.47 43.12 20.74
858 0 3 -2 29.79 41.24 18.36
859 0 3 -2 34.95 41.24 18.29
860 0 3 -2 34.95 37.54 13.89
861 0 4 1 35.95 41.24 18.29
862 0 4 1 34.63 42.18 18.29
863 0 4 1 35.95 37.54 13.89
864 0 4 1 34.63 38.49 13.89
865 0 1 2 8.58 0.0 24.67
866 0 1 2 8.58 3.7 24.67
867 0 1 2 8.58 3.7 34.07
868 0 1 2 8.58 0.0 34.07
869 0 1 2 7.22 1.86 29.18
870 0 1 2 7.22 5.56 29.18
871 0 2 4 5.79 2.12 25.950000000000003
872 0 2 4 5.79 5.23 25.950000000000003
873 0 2 4 4.78 7.39 27.880000000000003
874 0 2 4 5.79 1.53 33.160000000000004
875 0 2 4 4.86 3.67 31.090000000000003
876 0 2 4 5.79 5.82 33.160000000000004
877 0 3 -2 5.79 1.26 27.400000000000002
878 0 3 -2 4.48 1.88 25.1
879 0 3 -2 7.1 1.88 25.1
880 0 3 -2 5.79 6.13 27.400000000000002
881 0 3 -2 5.79 3.7 26.42
882 0 3 -2 4.48 5.47 25.1
883 0 3 -2 7.1 5.46 25.1
884 0 3 -2 4.78 7.39 29.470000000000002
885 0 3 -2 3.39 7.39 27.240000000000002
886 0 3 -2 5.79 0.0 32.59
887 0 3 -2 7.1 1.77 34.02
888 0 3 -2 4.48 1.77 34.02
889 0 3 -2 5.79 2.48 31.73
890 0 3 -2 4.95 3.7 29.520000000000003
891 0 3 -2 5.79 4.77 31.73
892 0 3 -2 4.48 5.58 34.02
893 0 3 -2 7.1 5.58 34.02
894 0 3 -2 3.42 3.7 31.64
895 0 3 -2 8.58 3.7 31.57
896 0 3 -2 8.58 0.0 27.18
897 0 4 1 9.58 3.7 31.57
898 0 4 1 8.26 4.64 31.57
899 0 4 1 9.58 0.0 27.18
900 0 4 1 8.26 0.95 27.18
901 0 1 2 14.16 3.7 24.67
902 0 1 2 14.16 7.39 24.67
903 0 1 2 14.16 7.39 34.07
904 0 1 2 14.16 3.7 34.07
905 0 1 2 12.8 5.56 29.18
906 0 1 2 12.8 9.25 29.18
907 0 2 4 11.37 5.82 25.950000000000003
908 0 2 4 11.37 8.92 25.950000000000003
909 0 2 4 10.36 11.09 27.880000000000003
910 0 2 4 11.37 5.23 33.160000000000004
911 0 2 4 10.440000000000001 7.37 31.090000000000003
912 0 2 4 11.37 9.51 33.160000000000004
913 0 3 -2 11.37 4.95 27.400000000000002
914 0 3 -2 10.059999999999999 5.58 25.1
915 0 3 -2 12.68 5.58 25.1
916 0 3 -2 11.37 9.83 27.400000000000002
917 0 3 -2 11.37 7.39 26.42
918 0 3 -2 10.059999999999999 9.16 25.1
919 0 3 -2 12.68 9.16 25.1
920 0 3 -2 10.36 11.09 29.470000000000002
921 0 3 -2 8.969999999999999 11.09 27.240000000000002
922 0 3 -2 11.37 3.7 32.59
923 0 3 -2 12.68 5.47 34.02
924 0 3 -2 10.059999999999999 5.47 34.02
925 0 3 -2 11.37 6.17 31.73
926 0 3 -2 10.530000000000001 7.39 29.520000000000003
927 0 3 -2 11.37 8.46 31.73
928 0 3 -2 10.059999999999999 9.28 34.02
929 0 3 -2 12.68 9.27 34.02
930 0 3 -2 9.0 7.39 31.64
931 0 3 -2 14.16 7.39 31.57
932 0 3 -2 14.16 3.7 27.18
933 0 4 1 15.16 7.39 31.57
934 0 4 1 13.84 8.34 31.57
935 0 4 1 15.16 3.7 27.18
936 0 4 1 13.84 4.64 27.18
937 0 1 2 11.37 1.85 36.06
938 0 1 2 11.37 5.54 36.06
939 0 1 2 11.37 5.54 45.46
940 0 1 2 11.37 1.85 45.46
941 0 1 2 10.01 3.71 40.57
942 0 1 2 10.01 7.41 40.57
943 0 2 4 8.58 3.97 37.33
944 0 2 4 8.58 7.07 37.33
945 0 2 4 7.57 9.24 39.27
946 0 2 4 8.58 3.38 44.55
947 0 2 4 7.65 5.52 42.480000000000004
948 0 2 4 8.58 7.66 44.55
949 0 3 -2 8.58 3.1 38.79
950 0 3 -2 7.27 3.73 36.49
951 0 3 -2 9.89 3.73 36.49
952 0 3 -2 8.58 7.98 38.79
953 0 3 -2 8.58 5.54 37.81
954 0 3 -2 7.27 7.31 36.49
955 0 3 -2 9.89 7.31 36.49
956 0 3 -2 7.57 9.24 40.86
957 0 3 -2 6.18 9.24 38.63
958 0 3 -2 8.58 1.85 43.980000000000004
959 0 3 -2 9.89 3.62 45.41
960 0 3 -2 7.27 3.62 45.41
961 0 3 -2 8.58 4.32 43.120000000000005
962 0 3 -2 7.74 5.54 40.91
963 0 3 -2 8.58 6.61 43.120000000000005
964 0 3 -2 7.27 7.43 45.41
965 0 3 -2 9.89 7.43 45.41
966 0 3 -2 6.21 5.55 43.03
967 0 3 -2 11.37 5.54 42.96
968 0 3 -2 11.37 1.85 38.56
969 0 4 1 12.37 5.54 42.96
970 0 4 1 11.05 6.49 42.96
971 0 4 1 12.37 1.85 38.56
972 0 4 1 11.05 2.79 38.56
973 0 1 2 16.95 5.54 36.06
974 0 1 2 16.95 9.24 36.06
975 0 1 2 16.95 9.24 45.46
976 0 1 2 16.95 5.54 45.46
977 0 1 2 15.59 7.41 40.57
978 0 1 2 15.59 11.1 40.57
979 0 2 4 14.16 7.66 37.33
980 0 2 4 14.16 10.77 37.33
981 0 2 4 13.15 12.93 39.27
982 0 2 4 14.16 7.07 44.55
983 0 2 4 13.23 9.22 42.480000000000004
984 0 2 4 14.16 11.36 44.55
985 0 3 -2 14.16 6.8 38.79
986 0 3 -2 12.85 7.42 36.49
987 0 3 -2 15.47 7.43 36.49
988 0 3 -2 14.16 11.68 38.79
989 0 3 -2 14.16 9.24 37.81
990 0 3 -2 12.85 11.01 36.49
991 0 3 -2 15.47 11.0 36.49
992 0 3 -2 13.15 12.93 40.86
993 0 3 -2 11.76 12.93 38.63
994 0 3 -2 14.16 5.54 43.980000000000004
995 0 3 -2 15.47 7.32 45.41
996 0 3 -2 12.85 7.31 45.41
997 0 3 -2 14.16 8.02 43.120000000000005
998 0 3 -2 13.32 9.24 40.91
999 0 3 -2 14.16 10.31 43.120000000000005
1000 0 3 -2 12.85 11.13 45.41
1001 0 3 -2 15.47 11.12 45.41
1002 0 3 -2 11.79 9.24 43.03
1003 0 3 -2 16.95 9.24 42.96
1004 0 3 -2 16.95 5.54 38.56
1005 0 4 1 17.95 9.24 42.96
1006 0 4 1 16.630000000000003 10.18 42.96
1007 0 4 1 17.95 5.54 38.56
1008 0 4 1 16.630000000000003 6.49 38.56
1009 0 1 2 26.58 0.0 24.67
1010 0 1 2 26.58 3.7 24.67
1011 0 1 2 26.58 3.7 34.07
1012 0 1 2 26.58 0.0 34.07
1013 0 1 2 25.22 1.86 29.18
1014 0 1 2 25.22 5.56 29.18
1015 0 2 4 23.79 2.12 25.950000000000003
1016 0 2 4 23.79 5.23 25.950000000000003
1017 0 2 4 22.78 7.39 27.880000000000003
1018 0 2 4 23.79 1.53 33.160000000000004
1019 0 2 4 22.86 3.67 31.090000000000003
1020 0 2 4 23.79 5.82 33.160000000000004
1021 0 3 -2 23.79 1.26 27.400000000000002
1022 0 3 -2 22.48 1.88 25.1