LAMMPS data file via write_data, version 12 Dec 2018, timestep = 500000

2108 atoms
5 atom types

3.9658539273772906e+00 3.7034146072622278e+01 xlo xhi
8.4564809882340732e+00 3.7543519011764232e+01 ylo yhi
1.0211924652923066e-01 4.5897880753470361e+01 zlo zhi

Masses

1 40.08
2 28.09
3 16
4 1
5 12.0107

Atoms # full

7 0 2 4.0000000000000000e+00 7.6179264956567696e+00 9.9738684398550674e+00 3.0540798985824775e+00 0 0 0
8 0 2 4.0000000000000000e+00 7.2920327502252853e+00 1.2730268356381616e+01 1.6666412192170330e+00 0 0 0
13 0 3 -2.0000000000000000e+00 7.2199960081035544e+00 1.0199456431834626e+01 4.5565414885141680e+00 0 0 0
16 0 3 -2.0000000000000000e+00 8.0583506646947036e+00 1.3455398693982588e+01 2.9780884243644961e+00 0 0 0
17 0 3 -2.0000000000000000e+00 7.2423254497917995e+00 1.1257145172065659e+01 2.1615822745501658e+00 0 0 0
20 0 3 -2.0000000000000000e+00 6.3514438170190246e+00 1.3454051012221830e+01 5.0609253568447503e+00 0 0 0
5 0 1 2.0000000000000000e+00 9.3005232340963389e+00 1.0051841379729835e+01 5.8354910561329207e+00 0 0 0
6 0 1 2.0000000000000000e+00 6.2145346866959263e+00 1.1502257415792762e+01 6.1585328967346422e+00 0 0 0
9 0 2 4.0000000000000000e+00 7.5837893234278591e+00 1.4142336318907622e+01 4.3659944479748960e+00 0 0 0
18 0 3 -2.0000000000000000e+00 6.0013514963581640e+00 1.3490060515708558e+01 1.4172102572804208e+00 0 0 0
31 0 3 -2.0000000000000000e+00 1.1611267896940943e+01 9.7495434366141680e+00 6.1231199516531190e+00 0 0 0
2 0 1 2.0000000000000000e+00 1.1077991809569681e+01 1.0123023605072227e+01 1.6401039218706230e+00 0 0 0
15 0 3 -2.0000000000000000e+00 9.2560190130788911e+00 9.8430176440199482e+00 3.1593072974304319e+00 0 0 0
47 0 2 4.0000000000000000e+00 9.5006506303140945e+00 1.4805038697156474e+01 6.7736890266503016e+00 0 0 0
62 0 3 -2.0000000000000000e+00 8.8400558690406204e+00 1.4288063529395592e+01 5.3885737329324641e+00 0 0 0
42 0 1 2.0000000000000000e+00 1.0696007554099346e+01 1.3622830302727921e+01 2.4721562841763580e+00 0 0 0
56 0 3 -2.0000000000000000e+00 1.0539842702651498e+01 1.5289697751108214e+01 9.2164412674075580e-01 0 0 0
965 0 3 -2.0000000000000000e+00 1.0577247095761473e+01 1.2082262624790555e+01 6.5515320356020190e-01 0 0 1
19 0 3 -2.0000000000000000e+00 8.2916732726695663e+00 1.2828124567662131e+01 3.8859687187261832e-01 0 0 0
1228 0 1 2.0000000000000000e+00 5.1419316182609442e+00 1.5323982583367641e+01 6.2097068423135737e-01 0 0 1
61 0 3 -2.0000000000000000e+00 1.0818792494744953e+01 1.4010821206094324e+01 7.2074014496191250e+00 0 0 0
26 0 3 -2.0000000000000000e+00 8.5157036816505389e+00 1.1684401720010936e+01 7.2448157645408697e+00 0 0 0
293 0 1 2.0000000000000000e+00 4.9394751872461100e+00 1.5551649386114336e+01 5.2958636093543028e+00 0 0 0
33 0 4 1.0000000000000000e+00 1.1703091277145338e+01 1.0498505556853997e+01 7.1246952319735772e+00 0 0 0
34 0 4 1.0000000000000000e+00 1.1692694818292804e+01 9.3364277512722502e+00 7.1916094483728639e+00 0 0 0
36 0 4 1.0000000000000000e+00 1.0004197055438913e+01 8.7880189316072599e+00 3.4665063434952637e+00 0 0 0
58 0 3 -2.0000000000000000e+00 1.2137487184852917e+01 1.1736059501537829e+01 7.1712296271570404e+00 0 0 0
21 0 3 -2.0000000000000000e+00 7.1076671964350009e+00 1.5548749024777162e+01 4.0322340767252545e+00 0 0 0
14 0 3 -2.0000000000000000e+00 7.2131076916770960e+00 8.6722629715584691e+00 2.3417392054961259e+00 0 0 0
49 0 3 -2.0000000000000000e+00 1.2397061568763181e+01 1.2304396649973626e+01 3.1826428816148908e+00 0 0 0
41 0 1 2.0000000000000000e+00 1.3011344959767277e+01 1.1147003448707723e+01 5.0527059232233213e+00 0 0 0
43 0 2 4.0000000000000000e+00 1.3606908094582707e+01 1.1971315120121377e+01 2.1989477331653116e+00 0 0 0
50 0 3 -2.0000000000000000e+00 1.3287071153822023e+01 1.0548776675758843e+01 1.7095048829067054e+00 0 0 0
51 0 3 -2.0000000000000000e+00 1.4910248338083194e+01 1.1915986249908292e+01 3.0319643350228986e+00 0 0 0
53 0 3 -2.0000000000000000e+00 1.3585867984540771e+01 1.2921690212450535e+01 8.9497405102118355e-01 0 0 0
72 0 4 1.0000000000000000e+00 1.6125148051261622e+01 1.1438956702394423e+01 2.4712617537423069e+00 0 0 0
68 0 3 -2.0000000000000000e+00 1.6758001920344292e+01 1.0909077729513719e+01 1.5184913059331679e+00 0 0 0
38 0 1 2.0000000000000000e+00 1.8461554528771345e+01 1.2020596655240899e+01 3.9825163268714181e-01 0 0 0
71 0 4 1.0000000000000000e+00 1.6927534300907258e+01 9.9142194430813060e+00 1.0039747169360071e+00 0 0 0
1784 1 5 0.0000000000000000e+00 1.9356660982631801e+01 1.5031978433476411e+01 5.9162925499132895e+00 0 0 0
37 0 1 2.0000000000000000e+00 1.4579327242011779e+01 9.1765349099730908e+00 5.3336229729926377e-01 0 0 0
1861 1 5 0.0000000000000000e+00 1.3406959714509849e+01 1.9145918674020006e+01 1.4811727795628395e+01 0 0 0
1742 1 5 0.0000000000000000e+00 1.4654047817434817e+01 1.5608992725004093e+01 9.5383281590419955e-01 0 0 0
63 0 3 -2.0000000000000000e+00 9.8527382702631012e+00 1.6339803187960740e+01 6.5380192982035643e+00 0 0 0
320 0 3 -2.0000000000000000e+00 7.0374273924361574e+00 1.6919713123427893e+01 2.1730547859242817e+00 0 0 0
324 0 4 1.0000000000000000e+00 6.1419674544025851e+00 1.6492193833268868e+01 3.0425190097054018e+00 0 0 0
290 0 1 2.0000000000000000e+00 6.8737327453954604e+00 1.8920157153179247e+01 1.3292953901567814e+00 0 0 0
303 0 3 -2.0000000000000000e+00 4.7498175433827159e+00 1.6631220755316182e+01 3.2445562873764295e+00 0 0 0
319 0 3 -2.0000000000000000e+00 6.4604245558375020e+00 2.0132144111191192e+01 5.4937737038983734e+00 0 0 0
322 0 4 1.0000000000000000e+00 5.8758160608142145e+00 2.1093534639386213e+01 5.1141549786114053e+00 0 0 0
338 0 3 -2.0000000000000000e+00 7.9451750568296182e+00 2.0810340392195837e+01 1.2082653553493119e+00 0 0 0
321 0 4 1.0000000000000000e+00 5.8402897605336710e+00 1.8974587293288060e+01 5.5279773037497026e+00 0 0 0
323 0 4 1.0000000000000000e+00 7.3215559816956688e+00 1.6456801315327397e+01 3.2377575052522283e+00 0 0 0
311 0 3 -2.0000000000000000e+00 5.4581852133563897e+00 1.7984949765583334e+01 6.3342781922888127e+00 0 0 0
325 0 1 2.0000000000000000e+00 8.5063063466260314e+00 1.6464676860105360e+01 5.1314739260560815e-01 0 0 0
337 0 3 -2.0000000000000000e+00 9.0716307345041862e+00 2.1816028108983637e+01 3.2977923130444831e+00 0 0 0
329 0 1 2.0000000000000000e+00 8.6789007357535439e+00 2.0821278068081703e+01 5.2141813335621698e+00 0 0 0
331 0 2 4.0000000000000000e+00 9.1721945281790376e+00 2.1616904380747972e+01 1.7587580339345381e+00 0 0 0
339 0 3 -2.0000000000000000e+00 1.0408899830972207e+01 2.0756835635980085e+01 1.2715190913017655e+00 0 0 0
360 0 4 1.0000000000000000e+00 1.0227668752344293e+01 1.9390791334280856e+01 8.9004574531227287e-01 0 0 0
48 0 2 4.0000000000000000e+00 1.0301121011518926e+01 1.7785974181938212e+01 6.7713998234109392e+00 0 0 0
64 0 3 -2.0000000000000000e+00 9.4748550954848518e+00 1.8925307824169646e+01 6.3588374104250471e+00 0 0 0
305 0 3 -2.0000000000000000e+00 4.3915008343784541e+00 1.9046724188839985e+01 2.3190646179386625e+00 0 0 0
356 0 3 -2.0000000000000000e+00 9.7386758074639967e+00 1.8439520788863653e+01 2.4661434621059503e-01 0 0 0
308 0 3 -2.0000000000000000e+00 5.1306163325754559e+00 2.2190846694441575e+01 4.8006228594549114e+00 0 0 0
304 0 3 -2.0000000000000000e+00 4.4261872985157238e+00 2.1685272287034525e+01 2.4136010070698370e+00 0 0 0
310 0 3 -2.0000000000000000e+00 4.7437977848647872e+00 1.5919326846794213e+01 7.5589637623472337e+00 0 0 0
307 0 3 -2.0000000000000000e+00 5.1162775478280116e+00 2.0383765917882350e+01 2.9127327072636888e-01 0 0 0
297 0 2 4.0000000000000000e+00 4.7463576730827945e+00 2.2864820915372746e+01 3.4311207396960630e+00 0 0 0
296 0 2 4.0000000000000000e+00 4.1382013759029039e+00 2.0401870402142020e+01 1.5745238653589377e+00 0 0 0
65 0 3 -2.0000000000000000e+00 1.1711742226401116e+01 1.7895925113854332e+01 7.4224873742894992e+00 0 0 0
472 0 1 2.0000000000000000e+00 4.1290786783519859e+00 2.2155120179177743e+01 6.8273867061366538e+00 1 0 0
328 0 1 2.0000000000000000e+00 7.0488417935426710e+00 1.9591724593128692e+01 7.6528246746970705e+00 0 0 0
1758 1 5 0.0000000000000000e+00 1.3011426522737660e+01 2.2905864063261966e+01 2.2136564273372907e+00 0 0 0
1778 1 5 0.0000000000000000e+00 1.2953794723217989e+01 2.2324950971897795e+01 4.7992550918095702e+00 0 0 0
1780 1 5 0.0000000000000000e+00 1.3731590614978517e+01 2.0089518197946372e+01 6.1849414727354590e+00 0 0 0
1761 1 5 0.0000000000000000e+00 1.4194295224704016e+01 1.8278233990628571e+01 2.1416401645520433e+00 0 0 0
1781 1 5 0.0000000000000000e+00 1.4184543066437108e+01 1.7400506258835740e+01 4.9270679130817570e+00 0 0 0
1762 1 5 0.0000000000000000e+00 1.7222979188952255e+01 1.5837421396763828e+01 2.3366347283412381e+00 0 0 0
1782 1 5 0.0000000000000000e+00 1.6813777934042992e+01 1.6186455987510087e+01 5.0311345648009889e+00 0 0 0
1764 1 5 0.0000000000000000e+00 1.9980005226150183e+01 1.6844468223702972e+01 3.9099203437258971e+00 0 0 0
1743 1 5 0.0000000000000000e+00 1.8432426314799226e+01 1.7875343980894627e+01 8.4104303348951615e-01 0 0 0
1739 1 5 0.0000000000000000e+00 1.7328035655351734e+01 2.2414879925911961e+01 7.5905508998987870e-01 0 0 0
1740 1 5 0.0000000000000000e+00 1.6631688398119191e+01 1.9822718500501889e+01 1.3693765022412805e+00 0 0 0
1759 1 5 0.0000000000000000e+00 1.5825283151038716e+01 2.2506263855826948e+01 3.0350635447257939e+00 0 0 0
1760 1 5 0.0000000000000000e+00 1.5672110304443439e+01 1.9854522986783216e+01 4.1584452830635534e+00 0 0 0
1763 1 5 0.0000000000000000e+00 1.8243619180247155e+01 1.8957136113908732e+01 3.3766866832786593e+00 0 0 0
1779 1 5 0.0000000000000000e+00 1.6266934318067054e+01 2.2179889851100967e+01 5.8000728551779446e+00 0 0 0
1783 1 5 0.0000000000000000e+00 1.8415645383737992e+01 1.8494435958215092e+01 6.0106691771717990e+00 0 0 0
1801 1 5 0.0000000000000000e+00 1.5865811907261508e+01 1.8328361951562361e+01 7.2066364853612281e+00 0 0 0
2099 1 5 0.0000000000000000e+00 1.4157407427870927e+01 2.0554436673977310e+01 5.7469403532384433e-01 0 0 1
66 0 3 -2.0000000000000000e+00 8.5349745264548584e+00 1.4783350177895253e+01 8.0654955075851174e+00 0 0 0
30 0 3 -2.0000000000000000e+00 6.4506924737829285e+00 1.1182661621025277e+01 8.4786464635929768e+00 0 0 0
11 0 2 4.0000000000000000e+00 7.9526010159724843e+00 1.1580726041414989e+01 8.7235324466962378e+00 0 0 0
27 0 3 -2.0000000000000000e+00 8.0747591263023804e+00 1.2916686182195981e+01 9.6424864432854331e+00 0 0 0
25 0 3 -2.0000000000000000e+00 8.8841157139131806e+00 1.0445929452043936e+01 9.4016502951540932e+00 0 0 0
29 0 3 -2.0000000000000000e+00 9.4613715579045081e+00 1.4864219151866688e+01 1.0533069289813689e+01 0 0 0
12 0 2 4.0000000000000000e+00 8.1833100771642169e+00 1.4500440113115074e+01 9.6516678164353991e+00 0 0 0
23 0 3 -2.0000000000000000e+00 1.1309273362745037e+01 9.6872035801933603e+00 8.5037061906011786e+00 0 0 0
3 0 1 2.0000000000000000e+00 9.9167906500052112e+00 1.2449414380745207e+01 1.1354732124808374e+01 0 0 0
60 0 3 -2.0000000000000000e+00 1.1122247840095598e+01 1.2465863848618273e+01 9.3784130133788697e+00 0 0 0
79 0 2 4.0000000000000000e+00 1.0010688850182660e+01 1.0384499063649725e+01 1.4482560232340141e+01 0 0 0
86 0 3 -2.0000000000000000e+00 9.9955708401009371e+00 1.0381254685290678e+01 1.2882826340162355e+01 0 0 0
90 0 3 -2.0000000000000000e+00 1.0047711141751670e+01 1.3831440847580801e+01 1.3351205470550141e+01 0 0 0
80 0 2 4.0000000000000000e+00 1.0517146025289193e+01 1.3332484005784970e+01 1.4763195259739376e+01 0 0 0
46 0 2 4.0000000000000000e+00 1.1750015469971220e+01 1.2988404353577508e+01 8.0029013245820888e+00 0 0 0
10 0 2 4.0000000000000000e+00 9.8501656487202531e+00 9.2345206702303813e+00 9.0224866501731800e+00 0 0 0
28 0 3 -2.0000000000000000e+00 6.9407579456009740e+00 1.5194749525326497e+01 1.0262844854791906e+01 0 0 0
89 0 3 -2.0000000000000000e+00 1.0012487774332378e+01 1.1869302875812672e+01 1.4923596228622369e+01 0 0 0
73 0 1 2.0000000000000000e+00 8.5780477655447136e+00 8.7336500267152903e+00 1.2162451838598214e+01 0 0 0
87 0 3 -2.0000000000000000e+00 1.1390793397306600e+01 9.8197019977933859e+00 1.5042499132139787e+01 0 0 0
85 0 3 -2.0000000000000000e+00 8.8241076023975396e+00 9.5405663911953145e+00 1.4994802081572274e+01 0 0 0
91 0 3 -2.0000000000000000e+00 1.2126847476253984e+01 1.3314488242826792e+01 1.4861598295891213e+01 0 0 0
74 0 1 2.0000000000000000e+00 1.1130876246187144e+01 1.5520815754158786e+01 1.2061251111459269e+01 0 0 0
24 0 3 -2.0000000000000000e+00 1.0047177084949876e+01 8.5229050134474473e+00 1.0407011449719775e+01 0 0 0
108 0 4 1.0000000000000000e+00 1.2253353606390270e+01 9.0907697328945893e+00 1.4562210335050553e+01 0 0 0
117 0 2 4.0000000000000000e+00 1.3525132652660375e+01 1.4058335447913503e+01 1.5159677399215068e+01 0 0 0
40 0 1 2.0000000000000000e+00 1.2823891565504754e+01 1.1016850438985610e+01 9.7479750244474932e+00 0 0 0
1802 1 5 0.0000000000000000e+00 1.6989062254682334e+01 1.5171676791385011e+01 7.6761941261137601e+00 0 0 0
59 0 3 -2.0000000000000000e+00 1.3171486723229654e+01 1.3533944161291377e+01 8.4401699665585799e+00 0 0 0
39 0 1 2.0000000000000000e+00 1.3998267443590841e+01 1.5261912410534050e+01 9.2884996117387448e+00 0 0 0
122 0 3 -2.0000000000000000e+00 1.3620418193218953e+01 9.9810619555717039e+00 1.1691526219734151e+01 0 0 0
126 0 3 -2.0000000000000000e+00 1.3279462784024071e+01 1.4763305146514993e+01 1.1447184583344981e+01 0 0 0
124 0 3 -2.0000000000000000e+00 1.4314817610536508e+01 1.4188357813392274e+01 1.3755519410434662e+01 0 0 0
115 0 2 4.0000000000000000e+00 1.4513352500575870e+01 1.0968765570201873e+01 1.2536399475177181e+01 0 0 0
121 0 3 -2.0000000000000000e+00 1.4670436167694305e+01 1.0847331132540617e+01 1.4108693130435309e+01 0 0 0
125 0 3 -2.0000000000000000e+00 1.3951016484514398e+01 1.2371238390113838e+01 1.2108787198125668e+01 0 0 0
123 0 3 -2.0000000000000000e+00 1.5917743569052448e+01 1.0773747524944451e+01 1.1799241632349245e+01 0 0 0
172 0 3 -2.0000000000000000e+00 1.9456381845791149e+01 1.2289631462719059e+01 9.9223802289298710e+00 0 0 0
110 0 1 2.0000000000000000e+00 1.7425116601994304e+01 1.2492832261452989e+01 1.1005467946159948e+01 0 0 0
116 0 2 4.0000000000000000e+00 1.4344789177388348e+01 1.3887219434612463e+01 1.2160193414146601e+01 0 0 0
127 0 3 -2.0000000000000000e+00 1.5749110848612556e+01 1.3922588941003246e+01 1.1419157634497546e+01 0 0 0
144 0 4 1.0000000000000000e+00 1.5466965252181513e+01 1.1211229493139301e+01 1.5279245158299174e+01 0 0 0
409 0 3 -2.0000000000000000e+00 1.0971711933152484e+01 2.2957397126668681e+01 1.4348761918658775e+01 0 0 0
361 0 1 2.0000000000000000e+00 8.5956176589366322e+00 1.5882849108386822e+01 1.4263234907774027e+01 0 0 0
298 0 2 4.0000000000000000e+00 5.2277049024059687e+00 1.7308698252114187e+01 7.7447507067685359e+00 0 0 0
313 0 3 -2.0000000000000000e+00 4.1697719747153226e+00 1.8081377883792214e+01 8.6761258178415872e+00 0 0 0
396 0 4 1.0000000000000000e+00 1.0656404888041898e+01 1.7379101352127773e+01 1.4761284092635414e+01 0 0 0
292 0 1 2.0000000000000000e+00 4.8854122111523308e+00 1.6049015988680637e+01 1.0458542257100527e+01 0 0 0
379 0 3 -2.0000000000000000e+00 7.2852054341006207e+00 2.2071207107490167e+01 1.4001952057428559e+01 0 0 0
392 0 3 -2.0000000000000000e+00 1.1187620799431443e+01 1.6436631944179620e+01 1.4256182482081504e+01 0 0 0
312 0 3 -2.0000000000000000e+00 6.5279364035110934e+00 1.7503531213678070e+01 8.5954203460407115e+00 0 0 0
291 0 1 2.0000000000000000e+00 7.5264395145187146e+00 1.7732596161815458e+01 1.0735111705237554e+01 0 0 0
300 0 2 4.0000000000000000e+00 4.5871388012864971e+00 1.9247500604915498e+01 1.2115437907352092e+01 0 0 0
317 0 3 -2.0000000000000000e+00 5.2187901973151947e+00 1.7879179912492084e+01 1.1793785273638663e+01 0 0 0
368 0 2 4.0000000000000000e+00 6.4651838322069812e+00 2.0790355156017920e+01 1.4234534535649090e+01 0 0 0
374 0 3 -2.0000000000000000e+00 8.3885400149654714e+00 1.7762401271721881e+01 1.2873827903868426e+01 0 0 0
377 0 3 -2.0000000000000000e+00 7.5228476275221654e+00 1.9651272596625905e+01 1.4522909171950831e+01 0 0 0
378 0 3 -2.0000000000000000e+00 5.5006812028123129e+00 2.0232637059454198e+01 1.3036295068335562e+01 0 0 0
348 0 3 -2.0000000000000000e+00 7.3867129465502792e+00 2.1939957078261735e+01 1.0680773644839757e+01 0 0 0
349 0 3 -2.0000000000000000e+00 8.1775390035282403e+00 2.1724580222858371e+01 8.2969605088972926e+00 0 0 0
346 0 3 -2.0000000000000000e+00 8.1725456571489516e+00 1.9714121317525169e+01 9.7632144724424013e+00 0 0 0
367 0 2 4.0000000000000000e+00 8.8071990567141381e+00 1.8847195270508301e+01 1.3924308627795494e+01 0 0 0
334 0 2 4.0000000000000000e+00 8.4515193053744753e+00 2.1195226867513828e+01 9.8371127410387160e+00 0 0 0
347 0 3 -2.0000000000000000e+00 9.9413464879636706e+00 2.1655741386641051e+01 1.0193560736599462e+01 0 0 0
375 0 3 -2.0000000000000000e+00 9.7252470952783181e+00 1.9919296507627422e+01 1.3331006002610454e+01 0 0 0
397 0 1 2.0000000000000000e+00 1.1032004467247885e+01 2.1286702595118463e+01 1.2266010405764538e+01 0 0 0
294 0 1 2.0000000000000000e+00 4.9658949106984318e+00 2.2424998750882615e+01 9.7698968013564027e+00 0 0 0
314 0 3 -2.0000000000000000e+00 4.5976474134253387e+00 2.0454380340924516e+01 8.2507553038352217e+00 0 0 0
373 0 3 -2.0000000000000000e+00 9.4982224557240649e+00 1.8037289584896879e+01 1.5063271942738151e+01 0 0 0
315 0 3 -2.0000000000000000e+00 4.2880004504687159e+00 1.9835095158655534e+01 1.0654737800358520e+01 0 0 0
395 0 4 1.0000000000000000e+00 1.2113886275332016e+01 1.6158140252339521e+01 1.5113906311309551e+01 0 0 0
432 0 4 1.0000000000000000e+00 1.2137432475498649e+01 2.2283817289685349e+01 1.4240814666362420e+01 0 0 0
1862 1 5 0.0000000000000000e+00 1.6060836442478788e+01 1.7821822225001181e+01 1.4883034330803966e+01 0 0 0
69 0 4 1.0000000000000000e+00 1.4969389942656953e+01 1.7652690276197923e+01 7.7477092194227204e+00 0 0 0
1840 1 5 0.0000000000000000e+00 1.8161945734809159e+01 2.0092959252474511e+01 1.3283185395692032e+01 0 0 0
428 0 3 -2.0000000000000000e+00 1.2965440808045932e+01 2.1644674302612874e+01 1.3609551919218342e+01 0 0 0
1820 1 5 0.0000000000000000e+00 1.3588326888673214e+01 1.9323258105315539e+01 1.1644223602106630e+01 0 0 0
431 0 4 1.0000000000000000e+00 1.4086328970325315e+01 2.1315358704148316e+01 1.3627355718961546e+01 0 0 0
1821 1 5 0.0000000000000000e+00 1.6617601651747876e+01 1.9575186832253394e+01 9.7854671728484988e+00 0 0 0
1800 1 5 0.0000000000000000e+00 1.3320613193741208e+01 1.9444558748893876e+01 8.9041568693029269e+00 0 0 0
70 0 4 1.0000000000000000e+00 1.2846837985929414e+01 1.7511176920753641e+01 7.8892137198563637e+00 0 0 0
1843 1 5 0.0000000000000000e+00 1.8186833233935836e+01 1.6139654700444169e+01 1.3800130463502226e+01 0 0 0
1842 1 5 0.0000000000000000e+00 1.6461128431444671e+01 1.8099293972270928e+01 1.2136582468247026e+01 0 0 0
1822 1 5 0.0000000000000000e+00 1.5907815434406078e+01 1.6295078175760334e+01 1.0097225824488467e+01 0 0 0
1838 1 5 0.0000000000000000e+00 1.7742847340475230e+01 2.2608142126867172e+01 1.1823674524391549e+01 0 0 0
1841 1 5 0.0000000000000000e+00 1.4000453384884796e+01 1.6823319965633036e+01 1.2948350378166110e+01 0 0 0
1858 1 5 0.0000000000000000e+00 1.7109063736773056e+01 2.2651688896079360e+01 1.4588196297965196e+01 0 0 0
1819 1 5 0.0000000000000000e+00 1.4984296206840494e+01 2.1743337344386980e+01 1.0973235254383400e+01 0 0 0
1803 1 5 0.0000000000000000e+00 1.8364895945845518e+01 1.7635006555411859e+01 8.6046075970211273e+00 0 0 0
1823 1 5 0.0000000000000000e+00 1.8631494912437333e+01 1.6373578676286655e+01 1.1053530325791222e+01 0 0 0
1799 1 5 0.0000000000000000e+00 1.5227872504169412e+01 2.1501448914704145e+01 8.2369399670783654e+00 0 0 0
1839 1 5 0.0000000000000000e+00 1.5267745693092143e+01 2.0883024298698061e+01 1.3554373971676082e+01 0 0 0
67 0 3 -2.0000000000000000e+00 1.4052339681616019e+01 1.7074404442941340e+01 8.1709017920432334e+00 0 0 0
102 0 3 -2.0000000000000000e+00 9.2219013392002065e+00 1.3711790575189292e+01 1.8302811095007819e+01 0 0 0
82 0 2 4.0000000000000000e+00 1.0036740900100261e+01 9.7070287193376270e+00 1.9737493683863981e+01 0 0 0
83 0 2 4.0000000000000000e+00 1.0178868510701742e+01 1.2627723853145422e+01 1.9005777884086996e+01 0 0 0
95 0 3 -2.0000000000000000e+00 1.1558585566661495e+01 9.2797526275143056e+00 1.9414825103622189e+01 0 0 0
96 0 3 -2.0000000000000000e+00 9.9464008155672232e+00 9.7763989497367749e+00 2.1302688155497290e+01 0 0 0
97 0 3 -2.0000000000000000e+00 9.7640638320429005e+00 1.1126869951736193e+01 1.9087173134306788e+01 0 0 0
98 0 3 -2.0000000000000000e+00 1.1547828648516465e+01 1.2690663850286926e+01 1.8184344847528067e+01 0 0 0
99 0 3 -2.0000000000000000e+00 1.0609672547314542e+01 1.3093510781105646e+01 2.0499045436116479e+01 0 0 0
84 0 2 4.0000000000000000e+00 1.1742625124097929e+01 1.3833878629658546e+01 2.1350692500059161e+01 0 0 0
81 0 2 4.0000000000000000e+00 9.3281802171303863e+00 1.4920160224688273e+01 1.7258480260901425e+01 0 0 0
100 0 3 -2.0000000000000000e+00 1.1838113367727052e+01 1.5149222783570345e+01 2.0610798738476849e+01 0 0 0
88 0 3 -2.0000000000000000e+00 9.9121287626392451e+00 1.4253719435344747e+01 1.5898939708922512e+01 0 0 0
918 0 3 -2.0000000000000000e+00 1.1477578471558596e+01 1.4080600437763001e+01 2.2923870396854571e+01 0 0 0
94 0 3 -2.0000000000000000e+00 9.1725410886634737e+00 8.6444851261974129e+00 1.9062573148403764e+01 0 0 0
76 0 1 2.0000000000000000e+00 1.2202058654294270e+01 9.6408087847217168e+00 2.2278574608043726e+01 0 0 0
105 0 4 1.0000000000000000e+00 1.2556605091802261e+01 9.3048982963298084e+00 1.8607773036544067e+01 0 0 0
75 0 1 2.0000000000000000e+00 1.2775007813324557e+01 1.1404460665339984e+01 1.6795383543806729e+01 0 0 0
101 0 3 -2.0000000000000000e+00 1.3147479526405496e+01 1.3070731270183654e+01 2.1254512649323232e+01 0 0 0
78 0 1 2.0000000000000000e+00 1.2742874403220430e+01 1.4927334231992635e+01 1.8245007302753077e+01 0 0 0
128 0 3 -2.0000000000000000e+00 1.4300766042897104e+01 1.3210236604566406e+01 1.6221317664205635e+01 0 0 0
136 0 3 -2.0000000000000000e+00 1.4565499006573338e+01 1.3784532171982136e+01 1.9270464248252857e+01 0 0 0
135 0 3 -2.0000000000000000e+00 1.5144750666013037e+01 1.1577368468961904e+01 1.9953509399887405e+01 0 0 0
120 0 2 4.0000000000000000e+00 1.4623881380182077e+01 1.2944215698039992e+01 2.0564290348861078e+01 0 0 0
106 0 4 1.0000000000000000e+00 1.4576304544666140e+01 9.5135488682904423e+00 1.8377975809336938e+01 0 0 0
138 0 3 -2.0000000000000000e+00 1.6122002664343057e+01 9.5972887054051768e+00 1.8705077482685684e+01 0 0 0
133 0 3 -2.0000000000000000e+00 1.6500399912076787e+01 1.0053797130336001e+01 2.1413634887158434e+01 0 0 0
143 0 4 1.0000000000000000e+00 1.6298665209776715e+01 1.0152002558218703e+01 1.7285660844167825e+01 0 0 0
119 0 2 4.0000000000000000e+00 1.6390662470754421e+01 1.0578638297429764e+01 1.9912545431114246e+01 0 0 0
137 0 3 -2.0000000000000000e+00 1.5702757380737431e+01 1.3230717459295519e+01 2.1703611897445978e+01 0 0 0
134 0 3 -2.0000000000000000e+00 1.7630167032290490e+01 1.1486756168650864e+01 1.9586544810742176e+01 0 0 0
114 0 1 2.0000000000000000e+00 1.5935944678946628e+01 1.2802246322672971e+01 1.7641185552007670e+01 0 0 0
139 0 3 -2.0000000000000000e+00 1.9793137686421762e+01 1.2405349511350547e+01 2.0742853786364286e+01 0 0 0
142 0 4 1.0000000000000000e+00 1.8920104899448706e+01 1.1951835126986465e+01 1.9939903672758980e+01 0 0 0
140 0 3 -2.0000000000000000e+00 1.5883938806372122e+01 1.0820780008879245e+01 1.6431667832971531e+01 0 0 0
129 0 3 -2.0000000000000000e+00 1.3048187272737716e+01 1.5352441454975580e+01 1.5822657903259005e+01 0 0 0
103 0 3 -2.0000000000000000e+00 1.3583287399419625e+01 9.5103330239029589e+00 1.7766125079606415e+01 0 0 0
113 0 1 2.0000000000000000e+00 1.4483703014753740e+01 9.0752469380127554e+00 1.5648498346314518e+01 0 0 0
1904 1 5 0.0000000000000000e+00 1.9593757970119846e+01 1.5101145502127737e+01 2.0563413692002669e+01 0 0 0
111 0 1 2.0000000000000000e+00 1.7919326713803983e+01 1.2456334602799696e+01 2.2314408973389863e+01 0 0 0
1864 1 5 0.0000000000000000e+00 1.9916454259445644e+01 1.5116246158835544e+01 1.5932586011079106e+01 0 0 0
1902 1 5 0.0000000000000000e+00 1.6348419446836527e+01 1.5380346901431899e+01 1.9097586317849728e+01 0 0 0
132 0 3 -2.0000000000000000e+00 1.4303311285489150e+01 1.0448999265029114e+01 2.2661441527510355e+01 0 0 0
118 0 2 4.0000000000000000e+00 1.5778365486715368e+01 1.0051555961082391e+01 2.2875451427873507e+01 0 0 0
1863 1 5 0.0000000000000000e+00 1.6836904742402631e+01 1.5393639976265268e+01 1.6253448898273174e+01 0 0 0
93 0 3 -2.0000000000000000e+00 8.1824742521998690e+00 1.5758796880076487e+01 1.6703528263962003e+01 0 0 0
92 0 3 -2.0000000000000000e+00 1.0363236042930202e+01 1.5859802469237362e+01 1.7998347472773901e+01 0 0 0
370 0 2 4.0000000000000000e+00 7.8349085847777777e+00 1.9152495178685776e+01 2.0801745051735047e+01 0 0 0
371 0 2 4.0000000000000000e+00 6.8752291015807518e+00 2.1334550061633465e+01 1.8861927798038945e+01 0 0 0
384 0 3 -2.0000000000000000e+00 6.7931231678689841e+00 1.8327672059927561e+01 2.1594616285438281e+01 0 0 0
385 0 3 -2.0000000000000000e+00 7.0280251372511859e+00 2.0089474225501249e+01 1.9774515410776530e+01 0 0 0
390 0 3 -2.0000000000000000e+00 5.4668903186037898e+00 2.1447737381596379e+01 1.8068404903262532e+01 0 0 0
1154 0 1 2.0000000000000000e+00 4.8776168573414980e+00 1.8468431675931480e+01 2.2548665316897019e+01 0 0 0
386 0 3 -2.0000000000000000e+00 8.0546362813354317e+00 2.1199238976259867e+01 1.7809915994737541e+01 0 0 0
382 0 3 -2.0000000000000000e+00 8.8345767864495457e+00 1.8295318591481848e+01 1.9907184091943250e+01 0 0 0
364 0 1 2.0000000000000000e+00 1.0154226653037952e+01 1.6560287721943311e+01 2.0226564261917563e+01 0 0 0
365 0 1 2.0000000000000000e+00 9.0631876586987357e+00 1.8155991170295930e+01 1.7358634033075198e+01 0 0 0
383 0 3 -2.0000000000000000e+00 8.5462663295661496e+00 2.0091204333591023e+01 2.1848985479062343e+01 0 0 0
391 0 3 -2.0000000000000000e+00 1.0225868118231885e+01 2.0251078134186375e+01 1.7222574059864218e+01 0 0 0
393 0 4 1.0000000000000000e+00 1.1368895682323132e+01 2.0461618783842173e+01 1.7544397749939417e+01 0 0 0
394 0 4 1.0000000000000000e+00 9.1878873380811470e+00 2.0744921348902746e+01 1.7771849077120859e+01 0 0 0
418 0 3 -2.0000000000000000e+00 1.1347986314497318e+01 2.2519547690092516e+01 2.1541340068205351e+01 0 0 0
369 0 2 4.0000000000000000e+00 4.8582852531602772e+00 2.1981417048964921e+01 1.6667212889057851e+01 0 0 0
387 0 3 -2.0000000000000000e+00 6.9756701250400956e+00 2.2601871630971598e+01 1.9824731684186180e+01 0 0 0
1171 0 3 -2.0000000000000000e+00 4.3564749906956344e+00 2.0825218214277154e+01 2.2391340386369500e+01 0 0 0
401 0 1 2.0000000000000000e+00 9.3022787929428912e+00 2.1858205616098576e+01 1.5601812781439133e+01 0 0 0
376 0 3 -2.0000000000000000e+00 5.4774157938142558e+00 2.1156723801158286e+01 1.5431638359177976e+01 0 0 0
400 0 1 2.0000000000000000e+00 9.9761555472830601e+00 2.1312884379994269e+01 2.2996463176994368e+01 0 0 0
544 0 1 2.0000000000000000e+00 4.0171802859806531e+00 2.2747671728682970e+01 2.0781096926466788e+01 1 0 0
1879 1 5 0.0000000000000000e+00 1.2465334735833412e+01 2.0738862735340781e+01 1.7921971628915770e+01 0 0 0
1900 1 5 0.0000000000000000e+00 1.3470145909785209e+01 1.9912903569957216e+01 2.0361340758184241e+01 0 0 0
1881 1 5 0.0000000000000000e+00 1.3877677028026426e+01 1.7996526265743658e+01 1.7352982570611911e+01 0 0 0
1859 1 5 0.0000000000000000e+00 1.4259492514032585e+01 2.1898222670078287e+01 1.6146476275971732e+01 0 0 0
1898 1 5 0.0000000000000000e+00 1.4352975135986496e+01 2.2567401611205938e+01 1.9570843895062193e+01 0 0 0
1883 1 5 0.0000000000000000e+00 1.8899989048060920e+01 1.6150443137560490e+01 1.8172872151191736e+01 0 0 0
1922 1 5 0.0000000000000000e+00 1.5774614666998588e+01 1.6285757590752041e+01 2.1851215122414008e+01 0 0 0
1901 1 5 0.0000000000000000e+00 1.5377085054487782e+01 1.7924948931278291e+01 1.9731033875224490e+01 0 0 0
1903 1 5 0.0000000000000000e+00 1.8392790970561975e+01 1.7959700071613366e+01 2.0155751091726010e+01 0 0 0
1882 1 5 0.0000000000000000e+00 1.7157862795527979e+01 1.8154482942214131e+01 1.7540524235289897e+01 0 0 0
1860 1 5 0.0000000000000000e+00 1.6779102086145905e+01 2.0326258782403553e+01 1.5920966244806074e+01 0 0 0
1878 1 5 0.0000000000000000e+00 1.6676460046184772e+01 2.2761361765528971e+01 1.7665964289774255e+01 0 0 0
1880 1 5 0.0000000000000000e+00 1.5408885169918275e+01 2.0301564696109711e+01 1.8323505193302928e+01 0 0 0
1899 1 5 0.0000000000000000e+00 1.7239879358431875e+01 2.1492802453519445e+01 2.0187011528569965e+01 0 0 0
1921 1 5 0.0000000000000000e+00 1.6733681362943710e+01 1.9231944010031455e+01 2.1802336940306187e+01 0 0 0
1923 1 5 0.0000000000000000e+00 1.8450394106520786e+01 1.7190244961194068e+01 2.2837330472681199e+01 0 0 0
1919 1 5 0.0000000000000000e+00 1.5871901338382381e+01 2.1482145041665252e+01 2.2921523737587325e+01 0 0 0
866 0 1 2.0000000000000000e+00 8.9551507970533635e+00 1.0739698029819030e+01 2.3133359613828816e+01 0 0 0
901 0 1 2.0000000000000000e+00 9.3720453427734984e+00 9.2127307789800721e+00 2.6929565319445391e+01 0 0 0
883 0 3 -2.0000000000000000e+00 7.5877584637889370e+00 1.2419733909474186e+01 2.3345996116432705e+01 0 0 0
879 0 3 -2.0000000000000000e+00 7.6952303480876054e+00 9.8381815224597400e+00 2.5192291410438752e+01 0 0 0
882 0 3 -2.0000000000000000e+00 5.8631724348908412e+00 1.4175509756309513e+01 2.4402833427808886e+01 0 0 0
871 0 2 4.0000000000000000e+00 6.5024016004377767e+00 1.0453622951166700e+01 2.6032701876679432e+01 0 0 0
872 0 2 4.0000000000000000e+00 6.7617955667315446e+00 1.2978096707704648e+01 2.4553927463686982e+01 0 0 0
881 0 3 -2.0000000000000000e+00 6.0615162844355384e+00 1.1760833113058109e+01 2.5284145479787490e+01 0 0 0
870 0 1 2.0000000000000000e+00 8.0490084235758168e+00 1.1875625905968553e+01 2.9143551500844556e+01 0 0 0
880 0 3 -2.0000000000000000e+00 7.9932747405256661e+00 1.3367557106033718e+01 2.5658811966549301e+01 0 0 0