LAMMPS data file via write_data, version 12 Dec 2018, timestep = 500000

2108 atoms
5 atom types

4.6272197702821902e+00 3.6372780229717378e+01 xlo xhi
7.8505010294105286e+00 3.8149498970587779e+01 ylo yhi
1.0211924652923066e-01 4.5897880753470361e+01 zlo zhi

Masses

1 40.08
2 28.09
3 16
4 1
5 12.0107

Atoms # full

7 0 2 4.0000000000000000e+00 8.1332094358051563e+00 9.4311129582316529e+00 3.0540798985824775e+00 0 0 0
8 0 2 4.0000000000000000e+00 7.8203514401791825e+00 1.2302362871231820e+01 1.6666412192170330e+00 0 0 0
13 0 3 -2.0000000000000000e+00 7.7511961677415160e+00 9.6661004499991279e+00 4.5565414885141680e+00 0 0 0
16 0 3 -2.0000000000000000e+00 8.5560166380627187e+00 1.3057706972895767e+01 2.9780884243644961e+00 0 0 0
17 0 3 -2.0000000000000000e+00 7.7726324318236149e+00 1.0767859554318349e+01 2.1615822745501658e+00 0 0 0
20 0 3 -2.0000000000000000e+00 6.9173860643539404e+00 1.3056303137727122e+01 5.0609253568447503e+00 0 0 0
5 0 1 2.0000000000000000e+00 9.7485023047172081e+00 9.5123347704301189e+00 5.8354910561329207e+00 0 0 0
6 0 1 2.0000000000000000e+00 6.7859532992412435e+00 1.1023184808196747e+01 6.1585328967346422e+00 0 0 0
9 0 2 4.0000000000000000e+00 8.1004377504707925e+00 1.3773266998857816e+01 4.3659944479748960e+00 0 0 0
18 0 3 -2.0000000000000000e+00 6.5812974364702077e+00 1.3093813037182137e+01 1.4172102572804208e+00 0 0 0
31 0 3 -2.0000000000000000e+00 1.1966817181042380e+01 9.1974410797529469e+00 6.1231199516531190e+00 0 0 0
2 0 1 2.0000000000000000e+00 1.1454872137134780e+01 9.5864829219306316e+00 1.6401039218706230e+00 0 0 0
15 0 3 -2.0000000000000000e+00 9.7057782525267751e+00 9.2948100458066403e+00 3.1593072974304319e+00 0 0 0
47 0 2 4.0000000000000000e+00 9.9406246051339657e+00 1.4463581976198611e+01 6.7736890266503016e+00 0 0 0
62 0 3 -2.0000000000000000e+00 9.3064536342894844e+00 1.3925066176457022e+01 5.3885737329324641e+00 0 0 0
42 0 1 2.0000000000000000e+00 1.1088167251987963e+01 1.3232114898652538e+01 2.4721562841763580e+00 0 0 0
56 0 3 -2.0000000000000000e+00 1.0938248994541448e+01 1.4968435157405668e+01 9.2164412674075580e-01 0 0 0
965 0 3 -2.0000000000000000e+00 1.0974157211916490e+01 1.1627356900844715e+01 6.5515320356020190e-01 0 0 1
19 0 3 -2.0000000000000000e+00 8.7800063417526815e+00 1.2404296424642771e+01 3.8859687187261832e-01 0 0 0
1228 0 1 2.0000000000000000e+00 5.7562543535339001e+00 1.5004148524335783e+01 6.2097068423135737e-01 0 0 1
61 0 3 -2.0000000000000000e+00 1.1206040795001739e+01 1.3636272089678609e+01 7.2074014496191250e+00 0 0 0
26 0 3 -2.0000000000000000e+00 8.9950755343954611e+00 1.1212918458424268e+01 7.2448157645408697e+00 0 0 0
293 0 1 2.0000000000000000e+00 5.5618961796977251e+00 1.5241301443864165e+01 5.2958636093543028e+00 0 0 0
33 0 4 1.0000000000000000e+00 1.2054967626055555e+01 9.9776099551863933e+00 7.1246952319735772e+00 0 0 0
34 0 4 1.0000000000000000e+00 1.2044987025599946e+01 8.7671122408489506e+00 7.1916094483728639e+00 0 0 0
36 0 4 1.0000000000000000e+00 1.0424029173259537e+01 8.1958530534927796e+00 3.4665063434952637e+00 0 0 0
58 0 3 -2.0000000000000000e+00 1.2471987697451592e+01 1.1266728647330719e+01 7.1712296271570404e+00 0 0 0
21 0 3 -2.0000000000000000e+00 7.6433605085580680e+00 1.5238280234140861e+01 4.0322340767252545e+00 0 0 0
14 0 3 -2.0000000000000000e+00 7.7445833840366216e+00 8.0752739283437105e+00 2.3417392054961259e+00 0 0 0
49 0 3 -2.0000000000000000e+00 1.2721179106000378e+01 1.1858746510405282e+01 3.1826428816148908e+00 0 0 0
41 0 1 2.0000000000000000e+00 1.3310891161349238e+01 1.0653128592391237e+01 5.0527059232233213e+00 0 0 0
43 0 2 4.0000000000000000e+00 1.3882631770853436e+01 1.1511786583513702e+01 2.1989477331653116e+00 0 0 0
50 0 3 -2.0000000000000000e+00 1.3575588307640498e+01 1.0029975703747892e+01 1.7095048829067054e+00 0 0 0
51 0 3 -2.0000000000000000e+00 1.5133838404556137e+01 1.1454152343582077e+01 3.0319643350228986e+00 0 0 0
53 0 3 -2.0000000000000000e+00 1.3862433265196225e+01 1.2501760637969950e+01 8.9497405102118355e-01 0 0 0
72 0 4 1.0000000000000000e+00 1.6300142129190426e+01 1.0957246564922583e+01 2.4712617537423069e+00 0 0 0
68 0 3 -2.0000000000000000e+00 1.6907681843464331e+01 1.0405289301506274e+01 1.5184913059331679e+00 0 0 0
38 0 1 2.0000000000000000e+00 1.8543092347692600e+01 1.1563121515839551e+01 3.9825163268714181e-01 0 0 0
71 0 4 1.0000000000000000e+00 1.7070432928870911e+01 9.3689785867306359e+00 1.0039747169360071e+00 0 0 0
1784 1 5 0.0000000000000000e+00 1.9508404276892954e+01 1.5009013924009189e+01 6.1740599265908349e+00 0 0 0
37 0 1 2.0000000000000000e+00 1.4816154152302738e+01 8.6005571980174462e+00 5.3336229729926377e-01 0 0 0
2104 1 5 0.0000000000000000e+00 1.9727110094288101e+01 1.4086541585876006e+01 3.3882538210977131e-01 0 0 1
63 0 3 -2.0000000000000000e+00 1.0278628739420936e+01 1.6062294987447171e+01 6.5380192982035643e+00 0 0 0
320 0 3 -2.0000000000000000e+00 7.5759302967049482e+00 1.6666367836987405e+01 2.1730547859242817e+00 0 0 0
324 0 4 1.0000000000000000e+00 6.7162887562335234e+00 1.6221035242925460e+01 3.0425190097054018e+00 0 0 0
290 0 1 2.0000000000000000e+00 7.4187834355332338e+00 1.8750163701188679e+01 1.3292953901567814e+00 0 0 0
303 0 3 -2.0000000000000000e+00 5.3798248416383814e+00 1.6365854953417447e+01 3.2445562873764295e+00 0 0 0
319 0 3 -2.0000000000000000e+00 7.0220075735848164e+00 2.0012650115833676e+01 5.4937737038983734e+00 0 0 0
322 0 4 1.0000000000000000e+00 6.4607834183921042e+00 2.1014098582705341e+01 5.1141549786114053e+00 0 0 0
338 0 3 -2.0000000000000000e+00 8.4473680545874412e+00 2.0719104575185202e+01 1.2082653553493119e+00 0 0 0
321 0 4 1.0000000000000000e+00 6.4266781701114439e+00 1.8806861763855245e+01 5.5279773037497026e+00 0 0 0
323 0 4 1.0000000000000000e+00 7.8486937424220491e+00 1.6184168036844209e+01 3.2377575052522283e+00 0 0 0
311 0 3 -2.0000000000000000e+00 6.0598578048368568e+00 1.7775989339208071e+01 6.3342781922888127e+00 0 0 0
325 0 1 2.0000000000000000e+00 8.9860540928183088e+00 1.6192371729160865e+01 5.1314739260560815e-01 0 0 0
337 0 3 -2.0000000000000000e+00 9.5287655051105968e+00 2.1766695946881146e+01 3.2977923130444831e+00 0 0 0
329 0 1 2.0000000000000000e+00 9.1517447063268165e+00 2.0730497987599364e+01 5.2141813335621698e+00 0 0 0
331 0 2 4.0000000000000000e+00 9.6253067470594171e+00 2.1559275396611266e+01 1.7587580339345381e+00 0 0 0
339 0 3 -2.0000000000000000e+00 1.0812543837692223e+01 2.0663370454117043e+01 1.2715190913017655e+00 0 0 0
360 0 4 1.0000000000000000e+00 1.0638562002213389e+01 1.9240407639838097e+01 8.9004574531227287e-01 0 0 0
48 0 2 4.0000000000000000e+00 1.0709076171096907e+01 1.7568723106167841e+01 6.7713998234109392e+00 0 0 0
64 0 3 -2.0000000000000000e+00 9.9158608916386815e+00 1.8755528983544831e+01 6.3588374104250471e+00 0 0 0
305 0 3 -2.0000000000000000e+00 5.0358408010181428e+00 1.8882004363389289e+01 2.3190646179386625e+00 0 0 0
356 0 3 -2.0000000000000000e+00 1.0169128775205028e+01 1.8249500821693832e+01 2.4661434621059503e-01 0 0 0
308 0 3 -2.0000000000000000e+00 5.7453916792112958e+00 2.2157131973364095e+01 4.8006228594549114e+00 0 0 0
304 0 3 -2.0000000000000000e+00 5.0691398065645963e+00 2.1630491965683074e+01 2.4136010070698370e+00 0 0 0
310 0 3 -2.0000000000000000e+00 5.3740458735845777e+00 1.5624298798721636e+01 7.5589637623472337e+00 0 0 0
307 0 3 -2.0000000000000000e+00 5.7316264458299822e+00 2.0274756164428545e+01 2.9127327072636888e-01 0 0 0
297 0 2 4.0000000000000000e+00 5.3765033661257808e+00 2.2859188453513735e+01 3.4311207396960630e+00 0 0 0
296 0 2 4.0000000000000000e+00 4.7926733209069425e+00 2.0293615002264268e+01 1.5745238653589377e+00 0 0 0
65 0 3 -2.0000000000000000e+00 1.2063272537384258e+01 1.7683255326882293e+01 7.4224873742894992e+00 0 0 0
472 0 1 2.0000000000000000e+00 4.7839155310283425e+00 2.2119916853299166e+01 6.8273867061366538e+00 1 0 0
328 0 1 2.0000000000000000e+00 7.5868881217739190e+00 1.9449713117883284e+01 7.6528246746970705e+00 0 0 0
1742 1 5 0.0000000000000000e+00 1.4799613092255258e+01 1.5548008430966068e+01 1.2131840415541610e+00 0 0 0
1758 1 5 0.0000000000000000e+00 1.3117846126412937e+01 2.2838871023408682e+01 2.4560366113177778e+00 0 0 0
1778 1 5 0.0000000000000000e+00 1.3065006231535470e+01 2.2264044251007483e+01 5.0430975075415132e+00 0 0 0
1780 1 5 0.0000000000000000e+00 1.3855893657873118e+01 2.0036334655618997e+01 6.4338025979400326e+00 0 0 0
1761 1 5 0.0000000000000000e+00 1.4325991311369096e+01 1.8217621185312868e+01 2.3946911209746808e+00 0 0 0
1781 1 5 0.0000000000000000e+00 1.4322780026615625e+01 1.7346741160492819e+01 5.1822826650218801e+00 0 0 0
1762 1 5 0.0000000000000000e+00 1.7368115552979805e+01 1.5793913800222636e+01 2.5937830950339058e+00 0 0 0
1782 1 5 0.0000000000000000e+00 1.6958687297211320e+01 1.6147362673999801e+01 5.2876729536963865e+00 0 0 0
1764 1 5 0.0000000000000000e+00 2.0120564968929546e+01 1.6819923855969584e+01 4.1628235640823439e+00 0 0 0
1743 1 5 0.0000000000000000e+00 1.8565453861109564e+01 1.7834723479415853e+01 1.0923961997655418e+00 0 0 0
1739 1 5 0.0000000000000000e+00 1.7436171991768486e+01 2.2367929684900027e+01 9.9990550939991241e-01 0 0 0
1740 1 5 0.0000000000000000e+00 1.6754409262795011e+01 1.9773511575117254e+01 1.6170666550652868e+00 0 0 0
1759 1 5 0.0000000000000000e+00 1.5934359386867330e+01 2.2456711821135517e+01 3.2766371263065142e+00 0 0 0
1760 1 5 0.0000000000000000e+00 1.5796408511401255e+01 1.9806956978404006e+01 4.4066584029558555e+00 0 0 0
1763 1 5 0.0000000000000000e+00 1.8372305094773303e+01 1.8921730523826611e+01 3.6254813740369580e+00 0 0 0
1779 1 5 0.0000000000000000e+00 1.6379512786861895e+01 2.2139596186503301e+01 6.0421620928640998e+00 0 0 0
1783 1 5 0.0000000000000000e+00 1.8548502531013536e+01 1.8466491340246087e+01 6.2604880166474821e+00 0 0 0
1801 1 5 0.0000000000000000e+00 1.6000362121351358e+01 1.8289418550842608e+01 7.4584837336792340e+00 0 0 0
2099 1 5 0.0000000000000000e+00 1.4304183021795515e+01 2.0602910803965397e+01 8.2200603095930802e-01 0 0 1
66 0 3 -2.0000000000000000e+00 9.0135755453942732e+00 1.4440989768649468e+01 8.0654955075851174e+00 0 0 0
30 0 3 -2.0000000000000000e+00 7.0126647748137252e+00 1.0690272521812949e+01 8.4786464635929768e+00 0 0 0
11 0 2 4.0000000000000000e+00 8.4544969753510308e+00 1.1104922959845025e+01 8.7235324466962378e+00 0 0 0
27 0 3 -2.0000000000000000e+00 8.5717687612092845e+00 1.2496548106468808e+01 9.6424864432854331e+00 0 0 0
25 0 3 -2.0000000000000000e+00 9.3487510853669580e+00 9.9228431790481171e+00 9.4016502951540932e+00 0 0 0
29 0 3 -2.0000000000000000e+00 9.9029166956064731e+00 1.4525228283195203e+01 1.0533069289813689e+01 0 0 0
12 0 2 4.0000000000000000e+00 8.6759776740853365e+00 1.4146291784480759e+01 9.6516678164353991e+00 0 0 0
23 0 3 -2.0000000000000000e+00 1.1676902428191509e+01 9.1325037294891249e+00 8.5037061906011786e+00 0 0 0
3 0 1 2.0000000000000000e+00 1.0340119023965197e+01 1.2009806646535724e+01 1.1354732124808374e+01 0 0 0
60 0 3 -2.0000000000000000e+00 1.1497357926533008e+01 1.2026941508991374e+01 9.3784130133788697e+00 0 0 0
79 0 2 4.0000000000000000e+00 1.0430261296142092e+01 9.8588531912484410e+00 1.4482560232340141e+01 0 0 0
86 0 3 -2.0000000000000000e+00 1.0415748006485597e+01 9.8554736306082997e+00 1.2882826340162355e+01 0 0 0
90 0 3 -2.0000000000000000e+00 1.0465802696125277e+01 1.3449417549565291e+01 1.3351205470550141e+01 0 0 0
80 0 2 4.0000000000000000e+00 1.0916460184288901e+01 1.2929670839382316e+01 1.4763195259739376e+01 0 0 0
46 0 2 4.0000000000000000e+00 1.2100014851118113e+01 1.2571254534936342e+01 8.0029013245820888e+00 0 0 0
10 0 2 4.0000000000000000e+00 1.0276159022812188e+01 8.6609590317444045e+00 9.0224866501731800e+00 0 0 0
28 0 3 -2.0000000000000000e+00 7.4831276277998269e+00 1.4869530755521971e+01 1.0262844854791906e+01 0 0 0
89 0 3 -2.0000000000000000e+00 1.0431988263343625e+01 1.1405523829019357e+01 1.4923596228622369e+01 0 0 0
73 0 1 2.0000000000000000e+00 9.0549258549321081e+00 8.1392187774771525e+00 1.2162451838598214e+01 0 0 0
87 0 3 -2.0000000000000000e+00 1.1755161661367174e+01 9.2705229141323642e+00 1.5042499132139787e+01 0 0 0
85 0 3 -2.0000000000000000e+00 9.2911432982996995e+00 8.9797566573064902e+00 1.4994802081572274e+01 0 0 0
91 0 3 -2.0000000000000000e+00 1.2461773577189259e+01 1.2910925252937599e+01 1.4861598295891213e+01 0 0 0
74 0 1 2.0000000000000000e+00 1.1505641196335521e+01 1.5209183077251124e+01 1.2061251111459269e+01 0 0 0
24 0 3 -2.0000000000000000e+00 1.0465290001514294e+01 7.9196927224776061e+00 1.0407011449719775e+01 0 0 0
108 0 4 1.0000000000000000e+00 1.2583219462135149e+01 8.5112184715649519e+00 1.4562210335050553e+01 0 0 0
117 0 2 4.0000000000000000e+00 1.3804127346573841e+01 1.3685766091598740e+01 1.5159677399215068e+01 0 0 0
40 0 1 2.0000000000000000e+00 1.3130935902873736e+01 1.0517552540669472e+01 9.7479750244474932e+00 0 0 0
1802 1 5 0.0000000000000000e+00 1.7141172703403612e+01 1.5140099579415445e+01 7.9351173428636477e+00 0 0 0
59 0 3 -2.0000000000000000e+00 1.3464627254270971e+01 1.3139525168011062e+01 8.4401699665585799e+00 0 0 0
39 0 1 2.0000000000000000e+00 1.4258336745866480e+01 1.4939492094313440e+01 9.2884996117387448e+00 0 0 0
122 0 3 -2.0000000000000000e+00 1.3895601465447490e+01 9.4386062039144125e+00 1.1691526219734151e+01 0 0 0
126 0 3 -2.0000000000000000e+00 1.3568284272652894e+01 1.4420109527617317e+01 1.1447184583344981e+01 0 0 0
124 0 3 -2.0000000000000000e+00 1.4562224906116183e+01 1.3821206055621076e+01 1.3755519410434662e+01 0 0 0
115 0 2 4.0000000000000000e+00 1.4752818400509423e+01 1.0467464135737973e+01 1.2536399475177181e+01 0 0 0
121 0 3 -2.0000000000000000e+00 1.4903618720987293e+01 1.0340969929651624e+01 1.4108693130435309e+01 0 0 0
125 0 3 -2.0000000000000000e+00 1.4212975825161255e+01 1.1928373323031522e+01 1.2108787198125668e+01 0 0 0
123 0 3 -2.0000000000000000e+00 1.6101033826283921e+01 1.0264320338415748e+01 1.1799241632349245e+01 0 0 0
172 0 3 -2.0000000000000000e+00 1.9498126571913016e+01 1.1843366107042870e+01 9.9223802289298710e+00 0 0 0
110 0 1 2.0000000000000000e+00 1.7548111937877206e+01 1.2055033605673801e+01 1.1005467946159948e+01 0 0 0
116 0 2 4.0000000000000000e+00 1.4590997610327276e+01 1.3507520244376634e+01 1.2160193414146601e+01 0 0 0
127 0 3 -2.0000000000000000e+00 1.5939146414649912e+01 1.3544363480210770e+01 1.1419157634497546e+01 0 0 0
144 0 4 1.0000000000000000e+00 1.5668286642072710e+01 1.0720030722057103e+01 1.5279245158299174e+01 0 0 0
409 0 3 -2.0000000000000000e+00 1.1352843455799372e+01 2.2955622006930291e+01 1.4348761918658775e+01 0 0 0
361 0 1 2.0000000000000000e+00 9.0717929525625696e+00 1.5586301154660770e+01 1.4263234907774027e+01 0 0 0
298 0 2 4.0000000000000000e+00 5.8385967063077402e+00 1.7071560679264895e+01 7.7447507067685359e+00 0 0 0
313 0 3 -2.0000000000000000e+00 4.8229810956595713e+00 1.7876435295671168e+01 8.6761258178415872e+00 0 0 0
396 0 4 1.0000000000000000e+00 1.1050148692477878e+01 1.7144897241771464e+01 1.4761284092635414e+01 0 0 0
292 0 1 2.0000000000000000e+00 5.5099957226562530e+00 1.5759391654893465e+01 1.0458542257100527e+01 0 0 0
379 0 3 -2.0000000000000000e+00 7.8137972166964094e+00 2.2032507403713009e+01 1.4001952057428559e+01 0 0 0
392 0 3 -2.0000000000000000e+00 1.1560115967442913e+01 1.6163158275270479e+01 1.4256182482081504e+01 0 0 0
312 0 3 -2.0000000000000000e+00 7.0868189473871581e+00 1.7274511680965926e+01 8.5954203460407115e+00 0 0 0
291 0 1 2.0000000000000000e+00 8.0453819339450234e+00 1.7513121001899819e+01 1.0735111705237554e+01 0 0 0
300 0 2 4.0000000000000000e+00 5.2236532492140109e+00 1.9091146463424813e+01 1.2115437907352092e+01 0 0 0
317 0 3 -2.0000000000000000e+00 5.8300385894831317e+00 1.7665812408908415e+01 1.1793785273638663e+01 0 0 0
368 0 2 4.0000000000000000e+00 7.0265764789344178e+00 2.0698286620859847e+01 1.4234534535649090e+01 0 0 0
374 0 3 -2.0000000000000000e+00 8.8729984143555232e+00 1.7544167991335591e+01 1.2873827903868426e+01 0 0 0
377 0 3 -2.0000000000000000e+00 8.0419337224041314e+00 1.9511742288128350e+01 1.4522909171950831e+01 0 0 0
378 0 3 -2.0000000000000000e+00 6.1006539546629295e+00 2.0117330270235410e+01 1.3036295068335562e+01 0 0 0
348 0 3 -2.0000000000000000e+00 7.9112444286597876e+00 2.1895788623179566e+01 1.0680773644839757e+01 0 0 0
349 0 3 -2.0000000000000000e+00 8.6704374433991607e+00 2.1671437732132606e+01 8.2969605088972926e+00 0 0 0
346 0 3 -2.0000000000000000e+00 8.6656438308593025e+00 1.9577209705800986e+01 9.7632144724424013e+00 0 0 0
367 0 2 4.0000000000000000e+00 9.2749110944196538e+00 1.8674161740080734e+01 1.3924308627795494e+01 0 0 0
334 0 2 4.0000000000000000e+00 8.9334585331711587e+00 2.1120027987011444e+01 9.8371127410387160e+00 0 0 0
347 0 3 -2.0000000000000000e+00 1.0363692628488028e+01 2.1599730611168354e+01 1.0193560736599462e+01 0 0 0
375 0 3 -2.0000000000000000e+00 1.0156237211433210e+01 1.9790933862137464e+01 1.3331006002610454e+01 0 0 0
397 0 1 2.0000000000000000e+00 1.1410724288535230e+01 2.1215315203241708e+01 1.2266010405764538e+01 0 0 0
294 0 1 2.0000000000000000e+00 5.5872591142695143e+00 2.2401040365505597e+01 9.7698968013564027e+00 0 0 0
314 0 3 -2.0000000000000000e+00 5.2337415169585411e+00 2.0348312855159030e+01 8.2507553038352217e+00 0 0 0
373 0 3 -2.0000000000000000e+00 9.9382935574865350e+00 1.7830509984253030e+01 1.5063271942738151e+01 0 0 0
315 0 3 -2.0000000000000000e+00 4.9364804325469214e+00 1.9703224123591390e+01 1.0654737800358520e+01 0 0 0
395 0 4 1.0000000000000000e+00 1.2449330824357888e+01 1.5873062762864118e+01 1.5113906311309551e+01 0 0 0
432 0 4 1.0000000000000000e+00 1.2471935176472570e+01 2.2253976343435291e+01 1.4240814666362420e+01 0 0 0
1862 1 5 0.0000000000000000e+00 1.6202937661340563e+01 1.7802930885365072e+01 1.5135982928291561e+01 0 0 0
69 0 4 1.0000000000000000e+00 1.5190614344966319e+01 1.7429885704435019e+01 7.7477092194227204e+00 0 0 0
1840 1 5 0.0000000000000000e+00 1.8290582590890477e+01 2.0081574170107380e+01 1.3529196124333314e+01 0 0 0
428 0 3 -2.0000000000000000e+00 1.3266823175736397e+01 2.1588202398525432e+01 1.3609551919218342e+01 0 0 0
1820 1 5 0.0000000000000000e+00 1.3720227577213608e+01 1.9282798942747224e+01 1.1895049628762568e+01 0 0 0
431 0 4 1.0000000000000000e+00 1.4342875811474993e+01 2.1245165316821140e+01 1.3627355718961546e+01 0 0 0
1821 1 5 0.0000000000000000e+00 1.6746919100739834e+01 1.9546711073006602e+01 1.0033749967331241e+01 0 0 0
1800 1 5 0.0000000000000000e+00 1.3450147440771836e+01 1.9395858708492799e+01 9.1548627066046979e+00 0 0 0
70 0 4 1.0000000000000000e+00 1.3152964466515600e+01 1.7282475959041921e+01 7.8892137198563637e+00 0 0 0
1843 1 5 0.0000000000000000e+00 1.8337438632638936e+01 1.6129754679379950e+01 1.4055882274051335e+01 0 0 0
1842 1 5 0.0000000000000000e+00 1.6599993890942368e+01 1.8075799909482630e+01 1.2388600371553272e+01 0 0 0
1822 1 5 0.0000000000000000e+00 1.6055298666697428e+01 1.6263546496943775e+01 1.0354056047136002e+01 0 0 0
1838 1 5 0.0000000000000000e+00 1.7856809392050515e+01 2.2590809907966886e+01 1.2063748006511922e+01 0 0 0
1841 1 5 0.0000000000000000e+00 1.4146848746590251e+01 1.6788385405097245e+01 1.3205080961006018e+01 0 0 0
1858 1 5 0.0000000000000000e+00 1.7224518573018592e+01 2.2637720142927908e+01 1.4828556552812662e+01 0 0 0
1819 1 5 0.0000000000000000e+00 1.5102506171324299e+01 2.1708817806609780e+01 1.1217201385013560e+01 0 0 0
1803 1 5 0.0000000000000000e+00 1.8504075150462572e+01 1.7613211547166358e+01 8.8565717701441891e+00 0 0 0
1823 1 5 0.0000000000000000e+00 1.8779102235339945e+01 1.6359319232381132e+01 1.1308430708338888e+01 0 0 0
1799 1 5 0.0000000000000000e+00 1.5345699273678184e+01 2.1461503204788880e+01 8.4813571045496001e+00 0 0 0
1839 1 5 0.0000000000000000e+00 1.5392269479845016e+01 2.0856452191255570e+01 1.3800275022737109e+01 0 0 0
67 0 3 -2.0000000000000000e+00 1.4310246094340394e+01 1.6827504628165347e+01 8.1709017920432334e+00 0 0 0
1861 1 5 0.0000000000000000e+00 1.3541806730471750e+01 1.9112299661331903e+01 1.5063096683045421e+01 0 0 0
102 0 3 -2.0000000000000000e+00 9.6730252856599765e+00 1.3324781849196404e+01 1.8302811095007819e+01 0 0 0
82 0 2 4.0000000000000000e+00 1.0455271264053904e+01 9.1531549161589272e+00 1.9737493683863981e+01 0 0 0
83 0 2 4.0000000000000000e+00 1.0591713770315538e+01 1.2195545680430770e+01 1.9005777884086996e+01 0 0 0
95 0 3 -2.0000000000000000e+00 1.1916242144039780e+01 8.7080756539345074e+00 1.9414825103622189e+01 0 0 0
96 0 3 -2.0000000000000000e+00 1.0368544782918590e+01 9.2254155724636000e+00 2.1302688155497290e+01 0 0 0
97 0 3 -2.0000000000000000e+00 1.0193501278801518e+01 1.0632156199797071e+01 1.9087173134306788e+01 0 0 0
98 0 3 -2.0000000000000000e+00 1.1905915502527471e+01 1.2261108177349543e+01 1.8184344847528067e+01 0 0 0
99 0 3 -2.0000000000000000e+00 1.1005285645465685e+01 1.2680740396953137e+01 2.0499045436116479e+01 0 0 0
84 0 2 4.0000000000000000e+00 1.2092920119185496e+01 1.3451956905877958e+01 2.1350692500059161e+01 0 0 0
81 0 2 4.0000000000000000e+00 9.7750530084658873e+00 1.4583500234019505e+01 1.7258480260901425e+01 0 0 0
100 0 3 -2.0000000000000000e+00 1.2184588833059035e+01 1.4822107066218289e+01 2.0610798738476849e+01 0 0 0
88 0 3 -2.0000000000000000e+00 1.0335643612101929e+01 1.3889291078481335e+01 1.5898939708922512e+01 0 0 0
918 0 3 -2.0000000000000000e+00 1.1838475332737245e+01 1.3708958789335387e+01 2.2923870396854571e+01 0 0 0
94 0 3 -2.0000000000000000e+00 9.6256394451474545e+00 8.0463386728149473e+00 1.9062573148403764e+01 0 0 0
76 0 1 2.0000000000000000e+00 1.2533976308116907e+01 9.0841758173160763e+00 2.2278574608043726e+01 0 0 0
105 0 4 1.0000000000000000e+00 1.2874340888116857e+01 8.7342690589253724e+00 1.8607773036544067e+01 0 0 0
75 0 1 2.0000000000000000e+00 1.3084007500804027e+01 1.0921313192969416e+01 1.6795383543806729e+01 0 0 0
101 0 3 -2.0000000000000000e+00 1.3441580345325452e+01 1.2657011739772594e+01 2.1254512649323232e+01 0 0 0
78 0 1 2.0000000000000000e+00 1.3053159427077004e+01 1.4590973158326850e+01 1.8245007302753077e+01 0 0 0
128 0 3 -2.0000000000000000e+00 1.4548735401203038e+01 1.2802329796436265e+01 1.6221317664205635e+01 0 0 0
136 0 3 -2.0000000000000000e+00 1.4802879046265049e+01 1.3400554345811104e+01 1.9270464248252857e+01 0 0 0
135 0 3 -2.0000000000000000e+00 1.5358960639376638e+01 1.1101425488583059e+01 1.9953509399887405e+01 0 0 0
120 0 2 4.0000000000000000e+00 1.4858926124946157e+01 1.2525224685425272e+01 2.0564290348861078e+01 0 0 0
106 0 4 1.0000000000000000e+00 1.4813252362866432e+01 8.9516134045879827e+00 1.8377975809336938e+01 0 0 0
138 0 3 -2.0000000000000000e+00 1.6297122557707588e+01 9.0388424016940014e+00 1.8705077482685684e+01 0 0 0
133 0 3 -2.0000000000000000e+00 1.6660383915659377e+01 9.5143720105475023e+00 2.1413634887158434e+01 0 0 0
143 0 4 1.0000000000000000e+00 1.6466718601357133e+01 9.6166693314371248e+00 1.7285660844167825e+01 0 0 0
119 0 2 4.0000000000000000e+00 1.6555035971865166e+01 1.0061081559870347e+01 1.9912545431114246e+01 0 0 0
137 0 3 -2.0000000000000000e+00 1.5894647085511707e+01 1.2823664020106582e+01 2.1703611897445978e+01 0 0 0
134 0 3 -2.0000000000000000e+00 1.7744960351052601e+01 1.1007037675750555e+01 1.9586544810742176e+01 0 0 0
114 0 1 2.0000000000000000e+00 1.6118506891791775e+01 1.2377339919420242e+01 1.7641185552007670e+01 0 0 0
139 0 3 -2.0000000000000000e+00 1.9821412179032780e+01 1.1963905740934011e+01 2.0742853786364286e+01 0 0 0
142 0 4 1.0000000000000000e+00 1.8983300703433333e+01 1.1491494923937447e+01 1.9939903672758980e+01 0 0 0
140 0 3 -2.0000000000000000e+00 1.6068581254113397e+01 1.0313312509362227e+01 1.6431667832971531e+01 0 0 0
129 0 3 -2.0000000000000000e+00 1.3346259781822882e+01 1.5033793182287660e+01 1.5822657903259005e+01 0 0 0
103 0 3 -2.0000000000000000e+00 1.3859955903427332e+01 8.9482635666755730e+00 1.7766125079606415e+01 0 0 0
113 0 1 2.0000000000000000e+00 1.4724354894135315e+01 8.4950488936115729e+00 1.5648498346314518e+01 0 0 0
1904 1 5 0.0000000000000000e+00 1.9754240134918646e+01 1.5115684040011802e+01 2.0820811888162090e+01 0 0 0
111 0 1 2.0000000000000000e+00 1.8022553645311014e+01 1.2017015211201009e+01 2.2314408973389863e+01 0 0 0
1864 1 5 0.0000000000000000e+00 2.0073965047471994e+01 1.5121103905482570e+01 1.6189756660276391e+01 0 0 0
1902 1 5 0.0000000000000000e+00 1.6506509531323665e+01 1.5373491662864112e+01 1.9356364943409421e+01 0 0 0
132 0 3 -2.0000000000000000e+00 1.4551178834084233e+01 9.9260409011300421e+00 2.2661441527510355e+01 0 0 0
118 0 2 4.0000000000000000e+00 1.5967230867197022e+01 9.5120374593951365e+00 2.2875451427873507e+01 0 0 0
1863 1 5 0.0000000000000000e+00 1.6993143445146810e+01 1.5382428068388382e+01 1.6511893149492529e+01 0 0 0
93 0 3 -2.0000000000000000e+00 8.6751752821662897e+00 1.5457080083408323e+01 1.6703528263962003e+01 0 0 0
92 0 3 -2.0000000000000000e+00 1.0768706601184968e+01 1.5562294238797822e+01 1.7998347472773901e+01 0 0 0
370 0 2 4.0000000000000000e+00 8.3415122414036258e+00 1.8992182477835719e+01 2.0801745051735047e+01 0 0 0
371 0 2 4.0000000000000000e+00 7.4202199375040907e+00 2.1265156314199888e+01 1.8861927798038945e+01 0 0 0
384 0 3 -2.0000000000000000e+00 7.3413982411697178e+00 1.8132991729144909e+01 2.1594616285438281e+01 0 0 0
385 0 3 -2.0000000000000000e+00 7.5669041317504133e+00 1.9968202318212207e+01 1.9774515410776530e+01 0 0 0
390 0 3 -2.0000000000000000e+00 6.0682147058480567e+00 2.1383059772469558e+01 1.8068404903262532e+01 0 0 0
1154 0 1 2.0000000000000000e+00 5.5025121829767762e+00 1.8279616329028340e+01 2.2548665316897019e+01 0 0 0
386 0 3 -2.0000000000000000e+00 8.5524508300321500e+00 2.1124207266952965e+01 1.7809915994737541e+01 0 0 0
382 0 3 -2.0000000000000000e+00 9.3011937150076207e+00 1.8099290199499542e+01 1.9907184091943250e+01 0 0 0
364 0 1 2.0000000000000000e+00 1.0568057586904350e+01 1.6291966376930340e+01 2.0226564261917563e+01 0 0 0
365 0 1 2.0000000000000000e+00 9.5206601523549743e+00 1.7954157468987493e+01 1.7358634033075198e+01 0 0 0
383 0 3 -2.0000000000000000e+00 9.0244156763877363e+00 1.9970004514115345e+01 2.1848985479062343e+01 0 0 0
391 0 3 -2.0000000000000000e+00 1.0636833393548642e+01 2.0136539723136099e+01 1.7222574059864218e+01 0 0 0
393 0 4 1.0000000000000000e+00 1.1734139855050021e+01 2.0355852899893218e+01 1.7544397749939417e+01 0 0 0
394 0 4 1.0000000000000000e+00 9.6403718444848625e+00 2.0650959738463900e+01 1.7771849077120859e+01 0 0 0
418 0 3 -2.0000000000000000e+00 1.1714066861972411e+01 2.2499528843827271e+01 2.1541340068205351e+01 0 0 0
369 0 2 4.0000000000000000e+00 5.4839538429177610e+00 2.1938976092692531e+01 1.6667212889057851e+01 0 0 0
387 0 3 -2.0000000000000000e+00 7.5166433200117675e+00 2.2585282948904727e+01 1.9824731684186180e+01 0 0 0
1171 0 3 -2.0000000000000000e+00 5.0022159910775406e+00 2.0734602306527588e+01 2.2391340386369500e+01 0 0 0
401 0 1 2.0000000000000000e+00 9.7501876412090311e+00 2.1810630850117654e+01 1.5601812781439133e+01 0 0 0
376 0 3 -2.0000000000000000e+00 6.0783191621076327e+00 2.1079920626178296e+01 1.5431638359177976e+01 0 0 0
400 0 1 2.0000000000000000e+00 1.0397109325367476e+01 2.1242587895908226e+01 2.2996463176994368e+01 0 0 0
544 0 1 2.0000000000000000e+00 4.6764930747105646e+00 2.2737158050654358e+01 2.0781096926466788e+01 1 0 0
1879 1 5 0.0000000000000000e+00 1.2593410535421874e+01 2.0707748803304675e+01 1.8169997397753981e+01 0 0 0
1900 1 5 0.0000000000000000e+00 1.3604248122235024e+01 1.9893334828799865e+01 2.0610758136053366e+01 0 0 0
1881 1 5 0.0000000000000000e+00 1.4020393074070691e+01 1.7971786410478256e+01 1.7606880940245304e+01 0 0 0
1859 1 5 0.0000000000000000e+00 1.4380086985279251e+01 2.1872520485865131e+01 1.6390504429888239e+01 0 0 0
1898 1 5 0.0000000000000000e+00 1.4472036436895298e+01 2.2550663881715138e+01 1.9813149598871238e+01 0 0 0
1883 1 5 0.0000000000000000e+00 1.9053247528713925e+01 1.6155255854135831e+01 1.8428129373867733e+01 0 0 0
1922 1 5 0.0000000000000000e+00 1.5929470551619577e+01 1.6282551747898395e+01 2.2108114912766034e+01 0 0 0
1901 1 5 0.0000000000000000e+00 1.5521651028400051e+01 1.7914296631448931e+01 1.9984147197332742e+01 0 0 0
1903 1 5 0.0000000000000000e+00 1.8537385097119838e+01 1.7966605342607295e+01 2.0406858491141769e+01 0 0 0
1882 1 5 0.0000000000000000e+00 1.7299780625900127e+01 1.8148159962584135e+01 1.7791945047331225e+01 0 0 0
1860 1 5 0.0000000000000000e+00 1.6908125214442148e+01 2.0313820023004517e+01 1.6167272353693996e+01 0 0 0
1878 1 5 0.0000000000000000e+00 1.6793237578746151e+01 2.2752630890535603e+01 1.7906319067671731e+01 0 0 0
1880 1 5 0.0000000000000000e+00 1.5539560573818028e+01 2.0287564514939511e+01 1.8570736261291700e+01 0 0 0
1899 1 5 0.0000000000000000e+00 1.7365164440792888e+01 2.1493410386058901e+01 2.0430131031547013e+01 0 0 0
1921 1 5 0.0000000000000000e+00 1.6872359811156702e+01 1.9233814490521265e+01 2.2051354117750890e+01 0 0 0
866 0 1 2.0000000000000000e+00 9.4169447652200819e+00 1.0228852114487509e+01 2.3133359613828816e+01 0 0 0
901 0 1 2.0000000000000000e+00 9.8171635290625616e+00 8.6382612278142137e+00 2.6929565319445391e+01 0 0 0
883 0 3 -2.0000000000000000e+00 8.1042481252298977e+00 1.1978889488956076e+01 2.3345996116432705e+01 0 0 0
879 0 3 -2.0000000000000000e+00 8.2074211341463865e+00 9.2897724192701379e+00 2.5192291410438752e+01 0 0 0
882 0 3 -2.0000000000000000e+00 6.4486455375067084e+00 1.3807822662814626e+01 2.4402833427808886e+01 0 0 0
871 0 2 4.0000000000000000e+00 7.0623055363973215e+00 9.9308572408942037e+00 2.6032701876679432e+01 0 0 0
872 0 2 4.0000000000000000e+00 7.3113237440751071e+00 1.2560517403855689e+01 2.4553927463686982e+01 0 0 0
881 0 3 -2.0000000000000000e+00 6.6390556330495736e+00 1.1292534492677508e+01 2.5284145479787490e+01 0 0 0
870 0 1 2.0000000000000000e+00 8.5470480866564618e+00 1.1412110318787702e+01 2.9143551500844556e+01 0 0 0
880 0 3 -2.0000000000000000e+00 8.4935437509248235e+00 1.2966205318791959e+01 2.5658811966549301e+01 0 0 0
884 0 3 -2.0000000000000000e+00 9.8918722132228556e+00 1.2648451352993270e+01 2.7866014506162276e+01 0 0 0