LAMMPS data file via write_data, version 12 Dec 2018, timestep = 500000

2108 atoms
5 atom types

3.9658539273772906e+00 3.7034146072622278e+01 xlo xhi
7.2445210705869840e+00 3.8755478929411325e+01 ylo yhi
1.0211924652923066e-01 4.5897880753470361e+01 zlo zhi

Masses

1 40.08
2 28.09
3 16
4 1
5 12.0107

Atoms # full

7 0 2 4.0000000000000000e+00 7.6179264956567696e+00 8.8883574765858313e+00 3.0540798985824775e+00 0 0 0
8 0 2 4.0000000000000000e+00 7.2920327502252853e+00 1.1874457386076070e+01 1.6666412192170330e+00 0 0 0
13 0 3 -2.0000000000000000e+00 7.2199960081035544e+00 9.1327444680089691e+00 4.5565414885141680e+00 0 0 0
16 0 3 -2.0000000000000000e+00 8.0583506646947036e+00 1.2660015251808479e+01 2.9780884243644961e+00 0 0 0
17 0 3 -2.0000000000000000e+00 7.2423254497917995e+00 1.0278573936507959e+01 2.1615822745501658e+00 0 0 0
20 0 3 -2.0000000000000000e+00 6.3514438170190246e+00 1.2658555263232598e+01 5.0609253568447503e+00 0 0 0
5 0 1 2.0000000000000000e+00 9.3005232340963389e+00 8.9728281612278380e+00 5.8354910561329207e+00 0 0 0
6 0 1 2.0000000000000000e+00 6.2145346866959263e+00 1.0544112200538343e+01 6.1585328967346422e+00 0 0 0
9 0 2 4.0000000000000000e+00 7.5837893234278591e+00 1.3404197678801774e+01 4.3659944479748960e+00 0 0 0
18 0 3 -2.0000000000000000e+00 6.0013514963581640e+00 1.2697565558660960e+01 1.4172102572804208e+00 0 0 0
31 0 3 -2.0000000000000000e+00 1.1611267896940943e+01 8.6453387229735128e+00 6.1231199516531190e+00 0 0 0
2 0 1 2.0000000000000000e+00 1.1077991809569681e+01 9.0499422388467856e+00 1.6401039218706230e+00 0 0 0
15 0 3 -2.0000000000000000e+00 9.2560190130788911e+00 8.7466024476371818e+00 3.1593072974304319e+00 0 0 0
47 0 2 4.0000000000000000e+00 9.5006506303140945e+00 1.4122125255251399e+01 6.7736890266503016e+00 0 0 0
62 0 3 -2.0000000000000000e+00 8.8400558690406204e+00 1.3562068823508417e+01 5.3885737329324641e+00 0 0 0
42 0 1 2.0000000000000000e+00 1.0696007554099346e+01 1.2841399494583115e+01 2.4721562841763580e+00 0 0 0
56 0 3 -2.0000000000000000e+00 1.0539842702651498e+01 1.4647172563709288e+01 9.2164412674075580e-01 0 0 0
965 0 3 -2.0000000000000000e+00 1.0577247095761473e+01 1.1172451176878077e+01 6.5515320356020190e-01 0 0 1
19 0 3 -2.0000000000000000e+00 8.2916732726695663e+00 1.1980468281628903e+01 3.8859687187261832e-01 0 0 0
1228 0 1 2.0000000000000000e+00 5.1419316182609442e+00 1.4684314465310209e+01 6.2097068423135737e-01 0 0 1
61 0 3 -2.0000000000000000e+00 1.0818792494744953e+01 1.3261722973272533e+01 7.2074014496191250e+00 0 0 0
26 0 3 -2.0000000000000000e+00 8.5157036816505389e+00 1.0741435196785520e+01 7.2448157645408697e+00 0 0 0
293 0 1 2.0000000000000000e+00 4.9394751872461100e+00 1.4930953501617230e+01 5.2958636093543028e+00 0 0 0
33 0 4 1.0000000000000000e+00 1.1703091277145338e+01 9.4567143534205833e+00 7.1246952319735772e+00 0 0 0
34 0 4 1.0000000000000000e+00 1.1692694818292804e+01 8.1977967305293760e+00 7.1916094483728639e+00 0 0 0
36 0 4 1.0000000000000000e+00 1.0004197055438913e+01 7.6036871755865532e+00 3.4665063434952637e+00 0 0 0
58 0 3 -2.0000000000000000e+00 1.2137487184852917e+01 1.0797397793198064e+01 7.1712296271570404e+00 0 0 0
21 0 3 -2.0000000000000000e+00 7.1076671964350009e+00 1.4927811443510405e+01 4.0322340767252545e+00 0 0 0
14 0 3 -2.0000000000000000e+00 7.2131076916770960e+00 7.4782848854969144e+00 2.3417392054961259e+00 0 0 0
49 0 3 -2.0000000000000000e+00 1.2397061568763181e+01 1.1413096370808441e+01 3.1826428816148908e+00 0 0 0
41 0 1 2.0000000000000000e+00 1.3011344959767277e+01 1.0159253736093738e+01 5.0527059232233213e+00 0 0 0
43 0 2 4.0000000000000000e+00 1.3606908094582707e+01 1.1052258046871087e+01 2.1989477331653116e+00 0 0 0
50 0 3 -2.0000000000000000e+00 1.3287071153822023e+01 9.5111747318351885e+00 1.7095048829067054e+00 0 0 0
51 0 3 -2.0000000000000000e+00 1.4910248338083194e+01 1.0992318437309157e+01 3.0319643350228986e+00 0 0 0
53 0 3 -2.0000000000000000e+00 1.3585867984540771e+01 1.2081831063507897e+01 8.9497405102118355e-01 0 0 0
72 0 4 1.0000000000000000e+00 1.6125148051261622e+01 1.0475536427504148e+01 2.4712617537423069e+00 0 0 0
68 0 3 -2.0000000000000000e+00 1.6758001920344292e+01 9.9015008735682954e+00 1.5184913059331679e+00 0 0 0
38 0 1 2.0000000000000000e+00 1.8461554528771345e+01 1.1105646376468984e+01 3.9825163268714181e-01 0 0 0
71 0 4 1.0000000000000000e+00 1.6927534300907258e+01 8.8237377302666733e+00 1.0039747169360071e+00 0 0 0
1784 1 5 0.0000000000000000e+00 1.9509121363730653e+01 1.4883919885238834e+01 6.2270112433234841e+00 0 0 0
37 0 1 2.0000000000000000e+00 1.4579327242011779e+01 8.0245794859360675e+00 5.3336229729926377e-01 0 0 0
2104 1 5 0.0000000000000000e+00 1.9824088070542036e+01 1.4208752118017090e+01 3.9607736150003703e-01 0 0 1
63 0 3 -2.0000000000000000e+00 9.8527382702631012e+00 1.5784786786966055e+01 6.5380192982035643e+00 0 0 0
320 0 3 -2.0000000000000000e+00 7.0374273924361574e+00 1.6413022550502713e+01 2.1730547859242817e+00 0 0 0
324 0 4 1.0000000000000000e+00 6.1419674544025851e+00 1.5949876652615785e+01 3.0425190097054018e+00 0 0 0
290 0 1 2.0000000000000000e+00 6.8737327453954604e+00 1.8580170249164620e+01 1.3292953901567814e+00 0 0 0
303 0 3 -2.0000000000000000e+00 4.7498175433827159e+00 1.6100489151475191e+01 3.2445562873764295e+00 0 0 0
319 0 3 -2.0000000000000000e+00 6.4604245558375020e+00 1.9893156120434920e+01 5.4937737038983734e+00 0 0 0
322 0 4 1.0000000000000000e+00 5.8758160608142145e+00 2.0934662526040267e+01 5.1141549786114053e+00 0 0 0
338 0 3 -2.0000000000000000e+00 7.9451750568296182e+00 2.0627868758145130e+01 1.2082653553493119e+00 0 0 0
321 0 4 1.0000000000000000e+00 5.8402897605336710e+00 1.8639136234376327e+01 5.5279773037497026e+00 0 0 0
323 0 4 1.0000000000000000e+00 7.3215559816956688e+00 1.5911534758388644e+01 3.2377575052522283e+00 0 0 0
311 0 3 -2.0000000000000000e+00 5.4581852133563897e+00 1.7567028912841874e+01 6.3342781922888127e+00 0 0 0
325 0 1 2.0000000000000000e+00 8.5063063466260314e+00 1.5920066598300703e+01 5.1314739260560815e-01 0 0 0
337 0 3 -2.0000000000000000e+00 9.0716307345041862e+00 2.1717363784786716e+01 3.2977923130444831e+00 0 0 0
329 0 1 2.0000000000000000e+00 8.6789007357535439e+00 2.0639717907098159e+01 5.2141813335621698e+00 0 0 0
331 0 2 4.0000000000000000e+00 9.1721945281790376e+00 2.1501646412444629e+01 1.7587580339345381e+00 0 0 0
339 0 3 -2.0000000000000000e+00 1.0408899830972207e+01 2.0569905272269224e+01 1.2715190913017655e+00 0 0 0
360 0 4 1.0000000000000000e+00 1.0227668752344293e+01 1.9090023945416171e+01 8.9004574531227287e-01 0 0 0
48 0 2 4.0000000000000000e+00 1.0301121011518926e+01 1.7351472030337835e+01 6.7713998234109392e+00 0 0 0
64 0 3 -2.0000000000000000e+00 9.4748550954848518e+00 1.8585750142972017e+01 6.3588374104250471e+00 0 0 0
305 0 3 -2.0000000000000000e+00 4.3915008343784541e+00 1.8717284537870604e+01 2.3190646179386625e+00 0 0 0
356 0 3 -2.0000000000000000e+00 9.7386758074639967e+00 1.8059480854594643e+01 2.4661434621059503e-01 0 0 0
308 0 3 -2.0000000000000000e+00 5.1306163325754559e+00 2.2123417252302321e+01 4.8006228594549114e+00 0 0 0
304 0 3 -2.0000000000000000e+00 4.4261872985157238e+00 2.1575711644340853e+01 2.4136010070698370e+00 0 0 0
310 0 3 -2.0000000000000000e+00 4.7437977848647872e+00 1.5329270750679328e+01 7.5589637623472337e+00 0 0 0
307 0 3 -2.0000000000000000e+00 5.1162775478280116e+00 2.0165746411024607e+01 2.9127327072636888e-01 0 0 0
297 0 2 4.0000000000000000e+00 4.7463576730827945e+00 2.2853555991641382e+01 3.4311207396960630e+00 0 0 0
296 0 2 4.0000000000000000e+00 4.1382013759029039e+00 2.0185359602396016e+01 1.5745238653589377e+00 0 0 0
65 0 3 -2.0000000000000000e+00 1.1711742226401116e+01 1.7470585539990655e+01 7.4224873742894992e+00 0 0 0
472 0 1 2.0000000000000000e+00 4.1290786783519859e+00 2.2084713527435490e+01 6.8273867061366538e+00 1 0 0
328 0 1 2.0000000000000000e+00 7.0488417935426710e+00 1.9307701642680485e+01 7.6528246746970705e+00 0 0 0
1742 1 5 0.0000000000000000e+00 1.4777996369314758e+01 1.5255504113370844e+01 1.2720234319230137e+00 0 0 0
1758 1 5 0.0000000000000000e+00 1.2886419885600301e+01 2.2501573405415414e+01 2.4745735347405389e+00 0 0 0
1778 1 5 0.0000000000000000e+00 1.2854867119897150e+01 2.1941031836971330e+01 5.0651139369271689e+00 0 0 0
1780 1 5 0.0000000000000000e+00 1.3712819892864168e+01 1.9745743265846585e+01 6.4675687795216339e+00 0 0 0
1761 1 5 0.0000000000000000e+00 1.4228752694709543e+01 1.7917233539268306e+01 2.4384872353906815e+00 0 0 0
1781 1 5 0.0000000000000000e+00 1.4255792235830448e+01 1.7063424146910339e+01 5.2312255767538396e+00 0 0 0
1762 1 5 0.0000000000000000e+00 1.7340627771920889e+01 1.5584509868568492e+01 2.6462158170940770e+00 0 0 0
1782 1 5 0.0000000000000000e+00 1.6925745101360697e+01 1.5942077000505845e+01 5.3387273466961496e+00 0 0 0
1764 1 5 0.0000000000000000e+00 2.0064698008931479e+01 1.6699772738457348e+01 4.2038402725623030e+00 0 0 0
1743 1 5 0.0000000000000000e+00 1.8475311592273879e+01 1.7650293558241700e+01 1.1303935811870822e+00 0 0 0
1739 1 5 0.0000000000000000e+00 1.7214109474065346e+01 2.2148002621378467e+01 1.0130211191602996e+00 0 0 0
1740 1 5 0.0000000000000000e+00 1.6609394199971220e+01 1.9538568490355114e+01 1.6469514819484414e+00 0 0 0
1759 1 5 0.0000000000000000e+00 1.5714304775746124e+01 2.2206654655698468e+01 3.2920508262037660e+00 0 0 0
1760 1 5 0.0000000000000000e+00 1.5655674668513782e+01 1.9560853189715093e+01 4.4381212645135077e+00 0 0 0
1763 1 5 0.0000000000000000e+00 1.8254937402964362e+01 1.8746432694455223e+01 3.6573137743210147e+00 0 0 0
1779 1 5 0.0000000000000000e+00 1.6173324897511645e+01 2.1919306043867323e+01 6.0585619078254496e+00 0 0 0
1783 1 5 0.0000000000000000e+00 1.8448918903114912e+01 1.8312393204555647e+01 6.2946475018524168e+00 0 0 0
1801 1 5 0.0000000000000000e+00 1.5909114014799330e+01 1.8068303565550515e+01 7.4985497100429228e+00 0 0 0
2099 1 5 0.0000000000000000e+00 1.4214222196311713e+01 2.0567003572078185e+01 8.5074625258969050e-01 0 0 1
66 0 3 -2.0000000000000000e+00 8.5349745264548584e+00 1.4098629359395863e+01 8.0654955075851174e+00 0 0 0
30 0 3 -2.0000000000000000e+00 6.4506924737829285e+00 1.0197883422669474e+01 8.4786464635929768e+00 0 0 0
11 0 2 4.0000000000000000e+00 7.9526010159724843e+00 1.0629119878249218e+01 8.7235324466962378e+00 0 0 0
27 0 3 -2.0000000000000000e+00 8.0747591263023804e+00 1.2076410030733989e+01 9.6424864432854331e+00 0 0 0
25 0 3 -2.0000000000000000e+00 8.8841157139131806e+00 9.3997569061410218e+00 9.4016502951540932e+00 0 0 0
29 0 3 -2.0000000000000000e+00 9.4613715579045081e+00 1.4186237414532517e+01 1.0533069289813689e+01 0 0 0
12 0 2 4.0000000000000000e+00 8.1833100771642169e+00 1.3792143455860202e+01 9.6516678164353991e+00 0 0 0
23 0 3 -2.0000000000000000e+00 1.1309273362745037e+01 8.5778038786630582e+00 8.5037061906011786e+00 0 0 0
3 0 1 2.0000000000000000e+00 9.9167906500052112e+00 1.1570198912382400e+01 1.1354732124808374e+01 0 0 0
60 0 3 -2.0000000000000000e+00 1.1122247840095598e+01 1.1588019169349279e+01 9.3784130133788697e+00 0 0 0
79 0 2 4.0000000000000000e+00 1.0010688850182660e+01 9.3332073189026712e+00 1.4482560232340141e+01 0 0 0
86 0 3 -2.0000000000000000e+00 9.9955708401009371e+00 9.3296925758611220e+00 1.2882826340162355e+01 0 0 0
90 0 3 -2.0000000000000000e+00 1.0047711141751670e+01 1.3067394251553534e+01 1.3351205470550141e+01 0 0 0
80 0 2 4.0000000000000000e+00 1.0517146025289193e+01 1.2526857672969554e+01 1.4763195259739376e+01 0 0 0
46 0 2 4.0000000000000000e+00 1.1750015469971220e+01 1.2154104716320836e+01 8.0029013245820888e+00 0 0 0
10 0 2 4.0000000000000000e+00 9.8501656487202531e+00 8.0873973931387102e+00 9.0224866501731800e+00 0 0 0
28 0 3 -2.0000000000000000e+00 6.9407579456009740e+00 1.4544311985686095e+01 1.0262844854791906e+01 0 0 0
89 0 3 -2.0000000000000000e+00 1.0012487774332378e+01 1.0941744782202612e+01 1.4923596228622369e+01 0 0 0
73 0 1 2.0000000000000000e+00 8.5780477655447136e+00 7.5447875285770101e+00 1.2162451838598214e+01 0 0 0
87 0 3 -2.0000000000000000e+00 1.1390793397306600e+01 8.7213438305943054e+00 1.5042499132139787e+01 0 0 0
85 0 3 -2.0000000000000000e+00 8.8241076023975396e+00 8.4189469235422525e+00 1.4994802081572274e+01 0 0 0
91 0 3 -2.0000000000000000e+00 1.2126847476253984e+01 1.2507362263052901e+01 1.4861598295891213e+01 0 0 0
74 0 1 2.0000000000000000e+00 1.1130876246187144e+01 1.4897550400338078e+01 1.2061251111459269e+01 0 0 0
24 0 3 -2.0000000000000000e+00 1.0047177084949876e+01 7.3164804315267222e+00 1.0407011449719775e+01 0 0 0
108 0 4 1.0000000000000000e+00 1.2253353606390270e+01 7.9316672103732868e+00 1.4562210335050553e+01 0 0 0
117 0 2 4.0000000000000000e+00 1.3525132652660375e+01 1.3313196735290077e+01 1.5159677399215068e+01 0 0 0
40 0 1 2.0000000000000000e+00 1.2823891565504754e+01 1.0018254642324241e+01 9.7479750244474932e+00 0 0 0
1802 1 5 0.0000000000000000e+00 1.7142137026217576e+01 1.4956516542693695e+01 7.9917797270237152e+00 0 0 0
59 0 3 -2.0000000000000000e+00 1.3171486723229654e+01 1.2745106174729395e+01 8.4401699665585799e+00 0 0 0
39 0 1 2.0000000000000000e+00 1.3998267443590841e+01 1.4617071778085187e+01 9.2884996117387448e+00 0 0 0
122 0 3 -2.0000000000000000e+00 1.3620418193218953e+01 8.8961504521031465e+00 1.1691526219734151e+01 0 0 0
126 0 3 -2.0000000000000000e+00 1.3279462784024071e+01 1.4076913908732008e+01 1.1447184583344981e+01 0 0 0
124 0 3 -2.0000000000000000e+00 1.4314817610536508e+01 1.3454054297840971e+01 1.3755519410434662e+01 0 0 0
115 0 2 4.0000000000000000e+00 1.4513352500575870e+01 9.9661627011794067e+00 1.2536399475177181e+01 0 0 0
121 0 3 -2.0000000000000000e+00 1.4670436167694305e+01 9.8346087268336930e+00 1.4108693130435309e+01 0 0 0
125 0 3 -2.0000000000000000e+00 1.3951016484514398e+01 1.1485508255950531e+01 1.2108787198125668e+01 0 0 0
123 0 3 -2.0000000000000000e+00 1.5917743569052448e+01 9.7548931519448772e+00 1.1799241632349245e+01 0 0 0
172 0 3 -2.0000000000000000e+00 1.9456381845791149e+01 1.1397100751333765e+01 9.9223802289298710e+00 0 0 0
110 0 1 2.0000000000000000e+00 1.7425116601994304e+01 1.1617234949905155e+01 1.1005467946159948e+01 0 0 0
116 0 2 4.0000000000000000e+00 1.4344789177388348e+01 1.3127821054136577e+01 1.2160193414146601e+01 0 0 0
127 0 3 -2.0000000000000000e+00 1.5749110848612556e+01 1.3166138019412562e+01 1.1419157634497546e+01 0 0 0
144 0 4 1.0000000000000000e+00 1.5466965252181513e+01 1.0228831950951067e+01 1.5279245158299174e+01 0 0 0
409 0 3 -2.0000000000000000e+00 1.0971711933152484e+01 2.2953846887225811e+01 1.4348761918658775e+01 0 0 0
361 0 1 2.0000000000000000e+00 8.5956176589366322e+00 1.5289753200908677e+01 1.4263234907774027e+01 0 0 0
298 0 2 4.0000000000000000e+00 5.2277049024059687e+00 1.6834423106506787e+01 7.7447507067685359e+00 0 0 0
313 0 3 -2.0000000000000000e+00 4.1697719747153226e+00 1.7671492707602862e+01 8.6761258178415872e+00 0 0 0
396 0 4 1.0000000000000000e+00 1.0656404888041898e+01 1.6910693131310850e+01 1.4761284092635414e+01 0 0 0
292 0 1 2.0000000000000000e+00 4.8854122111523308e+00 1.5469767321082827e+01 1.0458542257100527e+01 0 0 0
379 0 3 -2.0000000000000000e+00 7.2852054341006207e+00 2.1993807699895559e+01 1.4001952057428559e+01 0 0 0
392 0 3 -2.0000000000000000e+00 1.1187620799431443e+01 1.5889684606293969e+01 1.4256182482081504e+01 0 0 0
312 0 3 -2.0000000000000000e+00 6.5279364035110934e+00 1.7045492148273471e+01 8.5954203460407115e+00 0 0 0
291 0 1 2.0000000000000000e+00 7.5264395145187146e+00 1.7293645841904301e+01 1.0735111705237554e+01 0 0 0
300 0 2 4.0000000000000000e+00 4.5871388012864971e+00 1.8934792321980577e+01 1.2115437907352092e+01 0 0 0
317 0 3 -2.0000000000000000e+00 5.2187901973151947e+00 1.7452444905288381e+01 1.1793785273638663e+01 0 0 0
368 0 2 4.0000000000000000e+00 6.4651838322069812e+00 2.0606218085753508e+01 1.4234534535649090e+01 0 0 0
374 0 3 -2.0000000000000000e+00 8.3885400149654714e+00 1.7325934710871188e+01 1.2873827903868426e+01 0 0 0
377 0 3 -2.0000000000000000e+00 7.5228476275221654e+00 1.9372211979675171e+01 1.4522909171950831e+01 0 0 0
378 0 3 -2.0000000000000000e+00 5.5006812028123129e+00 2.0002023481054152e+01 1.3036295068335562e+01 0 0 0
348 0 3 -2.0000000000000000e+00 7.3867129465502792e+00 2.1851620168103722e+01 1.0680773644839757e+01 0 0 0
349 0 3 -2.0000000000000000e+00 8.1775390035282403e+00 2.1618295241425272e+01 8.2969605088972926e+00 0 0 0
346 0 3 -2.0000000000000000e+00 8.1725456571489516e+00 1.9440298094103230e+01 9.7632144724424013e+00 0 0 0
367 0 2 4.0000000000000000e+00 8.8071990567141381e+00 1.8501128209616052e+01 1.3924308627795494e+01 0 0 0
334 0 2 4.0000000000000000e+00 8.4515193053744753e+00 2.1044829106507279e+01 9.8371127410387160e+00 0 0 0
347 0 3 -2.0000000000000000e+00 9.9413464879636706e+00 2.1543719835665588e+01 1.0193560736599462e+01 0 0 0
375 0 3 -2.0000000000000000e+00 9.7252470952783181e+00 1.9662571216656211e+01 1.3331006002610454e+01 0 0 0
397 0 1 2.0000000000000000e+00 1.1032004467247885e+01 2.1143927811332038e+01 1.2266010405764538e+01 0 0 0
294 0 1 2.0000000000000000e+00 4.9658949106984318e+00 2.2377081980102620e+01 9.7698968013564027e+00 0 0 0
314 0 3 -2.0000000000000000e+00 4.5976474134253387e+00 2.0242245369368309e+01 8.2507553038352217e+00 0 0 0
373 0 3 -2.0000000000000000e+00 9.4982224557240649e+00 1.7623730383697179e+01 1.5063271942738151e+01 0 0 0
315 0 3 -2.0000000000000000e+00 4.2880004504687159e+00 1.9571353088474766e+01 1.0654737800358520e+01 0 0 0
395 0 4 1.0000000000000000e+00 1.2113886275332016e+01 1.5587985273345772e+01 1.5113906311309551e+01 0 0 0
432 0 4 1.0000000000000000e+00 1.2137432475498649e+01 2.2224135397180923e+01 1.4240814666362420e+01 0 0 0
1862 1 5 0.0000000000000000e+00 1.6139136861826113e+01 1.7634148857937546e+01 1.5178413002895889e+01 0 0 0
69 0 4 1.0000000000000000e+00 1.4969389942656953e+01 1.7207081132681768e+01 7.7477092194227204e+00 0 0 0
1840 1 5 0.0000000000000000e+00 1.8156625932028064e+01 1.9962988429961307e+01 1.3554071270220739e+01 0 0 0
428 0 3 -2.0000000000000000e+00 1.2965440808045932e+01 2.1531730494447920e+01 1.3609551919218342e+01 0 0 0
1820 1 5 0.0000000000000000e+00 1.3608684380489946e+01 1.9021456105999075e+01 1.1933463443400180e+01 0 0 0
431 0 4 1.0000000000000000e+00 1.4086328970325315e+01 2.1174971929471063e+01 1.3627355718961546e+01 0 0 0
1821 1 5 0.0000000000000000e+00 1.6623150074075106e+01 1.9362309195395238e+01 1.0064836964120156e+01 0 0 0
1800 1 5 0.0000000000000000e+00 1.3330659471178443e+01 1.9110097102288574e+01 9.1931723829386822e+00 0 0 0
70 0 4 1.0000000000000000e+00 1.2846837985929414e+01 1.7053774997424568e+01 7.8892137198563637e+00 0 0 0
1843 1 5 0.0000000000000000e+00 1.8319658895990603e+01 1.6017457257919030e+01 1.4104232605359428e+01 0 0 0
1842 1 5 0.0000000000000000e+00 1.6523289014885464e+01 1.7901939223874439e+01 1.2428697099864815e+01 0 0 0
1822 1 5 0.0000000000000000e+00 1.6028157391167618e+01 1.6062359731194192e+01 1.0406045755224850e+01 0 0 0
1838 1 5 0.0000000000000000e+00 1.7647292382489724e+01 2.2449642225505769e+01 1.2074512355782865e+01 0 0 0
1841 1 5 0.0000000000000000e+00 1.4110166478441341e+01 1.6548473944115891e+01 1.3257533877357410e+01 0 0 0
1858 1 5 0.0000000000000000e+00 1.7018707838589776e+01 2.2494734599988842e+01 1.4840196134445302e+01 0 0 0
1819 1 5 0.0000000000000000e+00 1.4918423433468984e+01 2.1482628016837548e+01 1.1238511955982046e+01 0 0 0
1803 1 5 0.0000000000000000e+00 1.8433913712428904e+01 1.7473821680819324e+01 8.8958556451849340e+00 0 0 0
1823 1 5 0.0000000000000000e+00 1.8749662523137534e+01 1.6243262723908039e+01 1.1354620716308366e+01 0 0 0
1799 1 5 0.0000000000000000e+00 1.5163972899679679e+01 2.1226048028089789e+01 8.5037316150294000e+00 0 0 0
1839 1 5 0.0000000000000000e+00 1.5237416950154440e+01 2.0654637245146539e+01 1.3826065602359760e+01 0 0 0
67 0 3 -2.0000000000000000e+00 1.4052339681616019e+01 1.6580604813352881e+01 8.1709017920432334e+00 0 0 0
1861 1 5 0.0000000000000000e+00 1.3440818979435070e+01 1.8864897628492734e+01 1.5102806719379789e+01 0 0 0
102 0 3 -2.0000000000000000e+00 9.2219013392002065e+00 1.2937773123182055e+01 1.8302811095007819e+01 0 0 0
82 0 2 4.0000000000000000e+00 1.0036740900100261e+01 8.5992811128841886e+00 1.9737493683863981e+01 0 0 0
83 0 2 4.0000000000000000e+00 1.0178868510701742e+01 1.1763367507679956e+01 1.9005777884086996e+01 0 0 0
95 0 3 -2.0000000000000000e+00 1.1558585566661495e+01 8.1363986802151498e+00 1.9414825103622189e+01 0 0 0
96 0 3 -2.0000000000000000e+00 9.9464008155672232e+00 8.6744321953094872e+00 2.1302688155497290e+01 0 0 0
97 0 3 -2.0000000000000000e+00 9.7640638320429005e+00 1.0137442447805505e+01 1.9087173134306788e+01 0 0 0
98 0 3 -2.0000000000000000e+00 1.1547828648516465e+01 1.1831552504432281e+01 1.8184344847528067e+01 0 0 0
99 0 3 -2.0000000000000000e+00 1.0609672547314542e+01 1.2267970012813869e+01 2.0499045436116479e+01 0 0 0
84 0 2 4.0000000000000000e+00 1.1742625124097929e+01 1.3070035182107809e+01 2.1350692500059161e+01 0 0 0
81 0 2 4.0000000000000000e+00 9.3281802171303863e+00 1.4246840243338738e+01 1.7258480260901425e+01 0 0 0
100 0 3 -2.0000000000000000e+00 1.1838113367727052e+01 1.4494991348867638e+01 2.0610798738476849e+01 0 0 0
88 0 3 -2.0000000000000000e+00 9.9121287626392451e+00 1.3524862721621322e+01 1.5898939708922512e+01 0 0 0
918 0 3 -2.0000000000000000e+00 1.1477578471558596e+01 1.3337317140917563e+01 2.2923870396854571e+01 0 0 0
94 0 3 -2.0000000000000000e+00 9.1725410886634737e+00 7.4481922198139205e+00 1.9062573148403764e+01 0 0 0
76 0 1 2.0000000000000000e+00 1.2202058654294270e+01 8.5275428500177686e+00 2.2278574608043726e+01 0 0 0
105 0 4 1.0000000000000000e+00 1.2556605091802261e+01 8.1636398213918664e+00 1.8607773036544067e+01 0 0 0
75 0 1 2.0000000000000000e+00 1.2775007813324557e+01 1.0438165720671188e+01 1.6795383543806729e+01 0 0 0
101 0 3 -2.0000000000000000e+00 1.3147479526405496e+01 1.2243292209363256e+01 2.1254512649323232e+01 0 0 0
78 0 1 2.0000000000000000e+00 1.2742874403220430e+01 1.4254612084667290e+01 1.8245007302753077e+01 0 0 0
128 0 3 -2.0000000000000000e+00 1.4300766042897104e+01 1.2394422988309806e+01 1.6221317664205635e+01 0 0 0
136 0 3 -2.0000000000000000e+00 1.4565499006573338e+01 1.3016576519639438e+01 1.9270464248252857e+01 0 0 0
135 0 3 -2.0000000000000000e+00 1.5144750666013037e+01 1.0625482508144385e+01 1.9953509399887405e+01 0 0 0
120 0 2 4.0000000000000000e+00 1.4623881380182077e+01 1.2106233672824269e+01 2.0564290348861078e+01 0 0 0
106 0 4 1.0000000000000000e+00 1.4576304544666140e+01 8.3896779407607323e+00 1.8377975809336938e+01 0 0 0
138 0 3 -2.0000000000000000e+00 1.6122002664343057e+01 8.4803960978522195e+00 1.8705077482685684e+01 0 0 0
133 0 3 -2.0000000000000000e+00 1.6500399912076787e+01 8.9749468908760957e+00 2.1413634887158434e+01 0 0 0
143 0 4 1.0000000000000000e+00 1.6298665209776715e+01 9.0813361047232579e+00 1.7285660844167825e+01 0 0 0
119 0 2 4.0000000000000000e+00 1.6390662470754421e+01 9.5435248222910580e+00 1.9912545431114246e+01 0 0 0
137 0 3 -2.0000000000000000e+00 1.5702757380737431e+01 1.2416610580914357e+01 2.1703611897445978e+01 0 0 0
134 0 3 -2.0000000000000000e+00 1.7630167032290490e+01 1.0527319182793295e+01 1.9586544810742176e+01 0 0 0
114 0 1 2.0000000000000000e+00 1.5935944678946628e+01 1.1952433516185710e+01 1.7641185552007670e+01 0 0 0
139 0 3 -2.0000000000000000e+00 1.9793137686421762e+01 1.1522461970552138e+01 2.0742853786364286e+01 0 0 0
142 0 4 1.0000000000000000e+00 1.8920104899448706e+01 1.1031154720899242e+01 1.9939903672758980e+01 0 0 0
140 0 3 -2.0000000000000000e+00 1.5883938806372122e+01 9.8058450097564620e+00 1.6431667832971531e+01 0 0 0
129 0 3 -2.0000000000000000e+00 1.3048187272737716e+01 1.4715144909594100e+01 1.5822657903259005e+01 0 0 0
103 0 3 -2.0000000000000000e+00 1.3583287399419625e+01 8.3861941094102157e+00 1.7766125079606415e+01 0 0 0
113 0 1 2.0000000000000000e+00 1.4483703014753740e+01 7.9148508493227512e+00 1.5648498346314518e+01 0 0 0
1904 1 5 0.0000000000000000e+00 1.9777193872970464e+01 1.5085868671978069e+01 2.0872369232813536e+01 0 0 0
111 0 1 2.0000000000000000e+00 1.7919326713803983e+01 1.1577695819629660e+01 2.2314408973389863e+01 0 0 0
1864 1 5 0.0000000000000000e+00 2.0088576221393389e+01 1.5072735778695934e+01 1.6240761035258735e+01 0 0 0
132 0 3 -2.0000000000000000e+00 1.4303311285489150e+01 9.4030825372078812e+00 2.2661441527510355e+01 0 0 0
118 0 2 4.0000000000000000e+00 1.5778365486715368e+01 8.9725189577603697e+00 2.2875451427873507e+01 0 0 0
93 0 3 -2.0000000000000000e+00 8.1824742521998690e+00 1.5155363286741014e+01 1.6703528263962003e+01 0 0 0
92 0 3 -2.0000000000000000e+00 1.0363236042930202e+01 1.5264786008360387e+01 1.7998347472773901e+01 0 0 0
370 0 2 4.0000000000000000e+00 7.8349085847777777e+00 1.8831869777025453e+01 2.0801745051735047e+01 0 0 0
371 0 2 4.0000000000000000e+00 6.8752291015807518e+00 2.1195762566751569e+01 1.8861927798038945e+01 0 0 0
384 0 3 -2.0000000000000000e+00 6.7931231678689841e+00 1.7938311398298222e+01 2.1594616285438281e+01 0 0 0
385 0 3 -2.0000000000000000e+00 7.0280251372511859e+00 1.9846930410988620e+01 1.9774515410776530e+01 0 0 0
390 0 3 -2.0000000000000000e+00 5.4668903186037898e+00 2.1318382163334569e+01 1.8068404903262532e+01 0 0 0
1154 0 1 2.0000000000000000e+00 4.8776168573414980e+00 1.8090800982155152e+01 2.2548665316897019e+01 0 0 0
386 0 3 -2.0000000000000000e+00 8.0546362813354317e+00 2.1049175557644642e+01 1.7809915994737541e+01 0 0 0
382 0 3 -2.0000000000000000e+00 8.8345767864495457e+00 1.7903261807456232e+01 1.9907184091943250e+01 0 0 0
364 0 1 2.0000000000000000e+00 1.0154226653037952e+01 1.6023645032026678e+01 2.0226564261917563e+01 0 0 0
365 0 1 2.0000000000000000e+00 9.0631876586987357e+00 1.7752323767720075e+01 1.7358634033075198e+01 0 0 0
383 0 3 -2.0000000000000000e+00 8.5462663295661496e+00 1.9848804694638631e+01 2.1848985479062343e+01 0 0 0
391 0 3 -2.0000000000000000e+00 1.0225868118231885e+01 2.0022001312060283e+01 1.7222574059864218e+01 0 0 0
393 0 4 1.0000000000000000e+00 1.1368895682323132e+01 2.0250087015945219e+01 1.7544397749939417e+01 0 0 0
394 0 4 1.0000000000000000e+00 9.1878873380811470e+00 2.0556998128006917e+01 1.7771849077120859e+01 0 0 0
418 0 3 -2.0000000000000000e+00 1.1347986314497318e+01 2.2479509997601355e+01 2.1541340068205351e+01 0 0 0
369 0 2 4.0000000000000000e+00 4.8582852531602772e+00 2.1896535136426202e+01 1.6667212889057851e+01 0 0 0
387 0 3 -2.0000000000000000e+00 6.9756701250400956e+00 2.2568694266841224e+01 1.9824731684186180e+01 0 0 0
1171 0 3 -2.0000000000000000e+00 4.3564749906956344e+00 2.0643986398749874e+01 2.2391340386369500e+01 0 0 0
401 0 1 2.0000000000000000e+00 9.3022787929428912e+00 2.1763056084134476e+01 1.5601812781439133e+01 0 0 0
376 0 3 -2.0000000000000000e+00 5.4774157938142558e+00 2.1003117451211292e+01 1.5431638359177976e+01 0 0 0
400 0 1 2.0000000000000000e+00 9.9761555472830601e+00 2.1172291411795101e+01 2.2996463176994368e+01 0 0 0
544 0 1 2.0000000000000000e+00 4.0171802859806531e+00 2.2726644372692220e+01 2.0781096926466788e+01 1 0 0
1902 1 5 0.0000000000000000e+00 1.6520784446130381e+01 1.5240041062482366e+01 1.9412624742041356e+01 0 0 0
1863 1 5 0.0000000000000000e+00 1.7002006695804365e+01 1.5246043606913879e+01 1.6567224705636413e+01 0 0 0
1879 1 5 0.0000000000000000e+00 1.2451684884077004e+01 2.0450683535302542e+01 1.8201942517376196e+01 0 0 0
1900 1 5 0.0000000000000000e+00 1.3490090338687805e+01 1.9680798156519064e+01 2.0645580503508324e+01 0 0 0
1881 1 5 0.0000000000000000e+00 1.3956892405369606e+01 1.7754156723362549e+01 1.7652429593361429e+01 0 0 0
1859 1 5 0.0000000000000000e+00 1.4200527488472629e+01 2.1656329301084462e+01 1.6412118609885905e+01 0 0 0
1898 1 5 0.0000000000000000e+00 1.4278602953379476e+01 2.2357453913656549e+01 1.9830475188158307e+01 0 0 0
1883 1 5 0.0000000000000000e+00 1.9042016384760323e+01 1.6090136796963403e+01 1.8474872697692597e+01 0 0 0
1922 1 5 0.0000000000000000e+00 1.5922255000938792e+01 1.6148433677952841e+01 2.2160001246636739e+01 0 0 0
1901 1 5 0.0000000000000000e+00 1.5463317635806341e+01 1.7754778896798609e+01 2.0027120813468596e+01 0 0 0
1903 1 5 0.0000000000000000e+00 1.8476972598629125e+01 1.7897550053359705e+01 2.0443743776395760e+01 0 0 0
1882 1 5 0.0000000000000000e+00 1.7230056086525675e+01 1.8027195710158640e+01 1.7830165635374531e+01 0 0 0
1860 1 5 0.0000000000000000e+00 1.6772568353477567e+01 2.0170695975262529e+01 1.6193354363384046e+01 0 0 0
1878 1 5 0.0000000000000000e+00 1.6589607445640493e+01 2.2615542595096937e+01 1.7918037616417358e+01 0 0 0
1880 1 5 0.0000000000000000e+00 1.5409530812164778e+01 2.0119009774993327e+01 1.8599545293598375e+01 0 0 0
1899 1 5 0.0000000000000000e+00 1.7202409727059685e+01 2.1388748739003887e+01 2.0448218228158005e+01 0 0 0
1921 1 5 0.0000000000000000e+00 1.6778549377940251e+01 1.9125541908416430e+01 2.2083831991943651e+01 0 0 0
866 0 1 2.0000000000000000e+00 8.9551507970533635e+00 9.7180061991005662e+00 2.3133359613828816e+01 0 0 0
901 0 1 2.0000000000000000e+00 9.3720453427734984e+00 8.0637916767740894e+00 2.6929565319445391e+01 0 0 0
883 0 3 -2.0000000000000000e+00 7.5877584637889370e+00 1.1538045068496309e+01 2.3345996116432705e+01 0 0 0
879 0 3 -2.0000000000000000e+00 7.6952303480876054e+00 8.7413633160665647e+00 2.5192291410438752e+01 0 0 0
882 0 3 -2.0000000000000000e+00 5.8631724348908412e+00 1.3440135569331414e+01 2.4402833427808886e+01 0 0 0
871 0 2 4.0000000000000000e+00 6.5024016004377767e+00 9.4080915305585631e+00 2.6032701876679432e+01 0 0 0
872 0 2 4.0000000000000000e+00 6.7617955667315446e+00 1.2142938100008839e+01 2.4553927463686982e+01 0 0 0
881 0 3 -2.0000000000000000e+00 6.0615162844355384e+00 1.0824235872361006e+01 2.5284145479787490e+01 0 0 0
870 0 1 2.0000000000000000e+00 8.0490084235758168e+00 1.0948594731554445e+01 2.9143551500844556e+01 0 0 0
880 0 3 -2.0000000000000000e+00 7.9932747405256661e+00 1.2564853531540477e+01 2.5658811966549301e+01 0 0 0
884 0 3 -2.0000000000000000e+00 9.4498668888020632e+00 1.2234389407111514e+01 2.7866014506162276e+01 0 0 0